Name, EA,formula
RhC anion,1.460000,CRh-
CO2..pyridine radical anion,1.460000,C6H5NO2-
V10O2 radical anion,1.460000,O2V10-
V11O radical,1.460000,OV11
V12O radical,1.460000,OV12
W2 radical,1.460000,W2
Ti8,1.460000,Ti8
Dialuminum,1.460000,Al2
Ag3Au radical,1.460000,Ag3Au
Ag2Au2 radical,1.460000,Ag2Au2
Au2Zn anion,1.460000,Au2Zn-
(o-terphenyl)27 radical anion,1.460000,C486H378-
(o-terphenyl)30 radical anion,1.460000,C540H420-
"Oxygen, atomic",1.461000,O
PhN radical,1.461000,C6H5N
fluoro-p-benzoquinone radical,1.461000,C6H3FO2
"Benzoic acid, 4-nitro-, methyl ester",1.461000,C8H7NO4
Cr2D radical anion,1.464000,Cr2D-
CoD2,1.465000,CoD2
Me2C=C(iPr)O anion,1.466000,C7H13O-
copper cyanide,1.466000,CCuN
pMe-anilide anion,1.467000,C7H8N-
(C6F6)3..C6F6 radical anion,1.470000,C24F24-
VC3 radical anion,1.470000,C3V-
(m-terphenyl)90 radical anion,1.470000,C1620H1260-
Pb4S4 anion,1.470000,Pb4S4-
Nb10Al radical,1.470000,AlNb10
Nb9Al radical,1.470000,AlNb9
nickel monoxide,1.470000,NiO
Fe3,1.470000,Fe3
"Benzene, 2-methyl-1,3-dinitro-",1.470000,C7H6N2O4
BrClCH anion,1.472000,CHBrCl-
CoO2 radical,1.472000,CoO2
Cr2H radical anion,1.474000,Cr2H-
CrC3 radical anion,1.474000,C3Cr-
"Ethane, hexachloro-",1.479000,C2Cl6
(m-terphenyl)100 radical anion,1.480000,C1800H1400-
(o-terphenyl)35 radical anion,1.480000,C630H490-
Fe2(coronene)2 radical anion,1.480000,C48H24Fe2-
(1-Me-anthracene)9 radical anion,1.480000,C135H108-
C6F6..Ag anion,1.480000,C6AgF6-
p-pyridinide anion,1.480000,C5H4N-
Cu(NH2)2,1.480000,CuH4N2
C60Na20 radical anion,1.480000,C60Na20-
C60Na26 radical anion,1.480000,C60Na26-
(7-aza-indole)7 radical anion,1.480000,C49H42N14-
W6 radical anion,1.480000,W6-
(H2O)7..O2CCO2 dianion,1.480000,C2H14O11-2
Y10O radical,1.480000,OY10
MeSOCH2 anion,1.480000,C2H5OS-
V10 anion,1.490000,V10-
V11 anion,1.490000,V11-
V12 anion,1.490000,V12-
V15 anion,1.490000,V15-
C60Na13 radical anion,1.490000,C60Na13-
coronene..V5 anion,1.490000,C24H12V5-
"H2O..1,4-O2C-C6H4-CO2 dianion",1.490000,C8H6O5-2
(p-terphenyl)50 radical anion,1.490000,C900H700-
(1-Me-anthracene)10 radical anion,1.490000,C150H120-
"2,5-diMe-cyclopentanone enolate",1.492000,C7H11O
TiC4 anion,1.494000,C4Ti-
iron oxide,1.495000,FeO
Tribromosilyl radical,1.500000,Br3Si
(EtNO2)2..EtNO2 anion,1.500000,C6H15N3O6-
V2C3 radical anion,1.500000,C3V2-
V2C11 radical anion,1.500000,C11V2-
(p-terphenyl)60 radical anion,1.500000,C1080H840-
(o-terphenyl)40 radical anion,1.500000,C720H560-
Fe(coronene)2 radical anion,1.500000,C48H24Fe-
Al13Cs2 anion,1.500000,Al13Cs2-
SmSi4 anion,1.500000,Si4Sm-
SmSi6 anion,1.500000,Si6Sm-
Rh2 anion,1.500000,Rh2-
Bi3C6H5 anion,1.500000,C6H5Bi3-
Bi3C4H3O anion,1.500000,C4H3Bi3O-
Pb4,1.500000,Pb4
K(KI)9 radical anion,1.500000,I9K10-
(MeO)3PO..UO2(CF3COCHCOCF3)2 radical anion,1.500000,C13H11F12O10PU-
C70Na11 radical anion,1.500000,C70Na11-
C60Na21 radical anion,1.500000,C60Na21-
(benzene)5..Co anion,1.500000,C30H30Co-
Ni4 radical anion,1.500000,Ni4-
cyclopentoxide anion,1.500000,C5H9O-
(CF3)2CHOH..uracil radical anion,1.500000,C7H6F6N2O3-
V13O radical,1.500000,OV13
V15O radical,1.500000,OV15
In3,1.500000,In3
C60H18 radical,1.500000,C60H18
Cr(O2) radical,1.500000,CrO2
Sulfur tetrafluoride,1.500000,F4S
(benzene)5Ti4,1.500000,C30H30Ti4
"3,3,4,4,5,5-hexafluorodihydro-2H-pyran-2,6(3H)-dione",1.500000,C5F6O3
"4-Nitro-α,α,α-trifluorotoluene",1.500000,C7H4F3NO2
"3,5-Dichloronitrobenzene",1.500000,C6H3Cl2NO2
chlorine fluoride,1.500000,ClF
CH2=C(NH2)O anion,1.501000,C2H4NO-
OCuO anion,1.503000,CuO2-
benzynide anion,1.506000,C6H3-
Si6Na3 radical anion,1.510000,Na3Si6-
C60Na22 radical anion,1.510000,C60Na22-
C60Na24 radical anion,1.510000,C60Na24-
Pb6F anion,1.510000,FPb6-
RhN anion,1.510000,NRh-
Fe6,1.510000,Fe6
Nickel tetraphenylporphyrin,1.510000,C44H28N4Ni
LaC7 radical,1.510000,C7La
Hydrocarboxyl radical,1.510000,CHO2
Hydroxycarbonyl-d1,1.510000,CDO2
tBuCH=NO anion,1.513000,C5H10NO-
Nb8 radical,1.513000,Nb8
HP2 anion,1.514000,HP2-
Al3S anion,1.520000,Al3S-
(C6F6)5..C6F6 radical anion,1.520000,C36F36-
C70Na7 radical anion,1.520000,C70Na7-
PtBr6 dianion,1.520000,Br6Pt-2
(p-terphenyl)70 radical anion,1.520000,C1260H980-
(1-Me-anthracene)11 radical anion,1.520000,C165H132-
Phosphorous bromide dichloride,1.522000,BrCl2P
Dichloromethyl radical,1.522000,CHCl2
"Methanone, bis(pentafluorophenyl)-",1.522000,C13F10O
cyclohexanone enolate anion,1.526000,C6H9O-
"1,3,5-triazinide anion",1.529000,C3H2N3-
(p-terphenyl)80 radical anion,1.530000,C1440H1120-
Mn4S4 radical anion,1.530000,Mn4S4-
(1-Me-anthracene)12 radical anion,1.530000,C180H144-
Al2Co6 anion,1.530000,Al2Co6-
coronene..Ti2 anion,1.530000,C24H12Ti2-
H2O..H anion,1.530000,H3O-
Nb11Al radical,1.530000,AlNb11
(Me2P)2CH anion,1.531000,C5H13P2-
(H2O)34 radical anion,1.531000,H68O34-
europium dichloride,1.534000,Cl2Eu
CD2CN anion,1.538000,C2D2N-
C70Na13 radical anion,1.540000,C70Na13-
C60Na25 radical anion,1.540000,C60Na25-
(p-terphenyl)90 radical anion,1.540000,C1620H1260-
(p-terphenyl)100 radical anion,1.540000,C1800H1400-
(o-terphenyl)50 radical anion,1.540000,C900H700-
H2O..UO2F4 dianion,1.540000,F4H2O3U-2
9-OMe-fluorenide anion,1.542000,C14H11O-
Titanium dicarbide,1.542000,C2Ti
C2Cl5 anion,1.544000,C2Cl5-
Ar..O radical anion,1.547000,ArO-
Au2Mg anion,1.550000,Au2Mg-
EuSi6 anion,1.550000,EuSi6-
(1-Me-anthracene)13 radical anion,1.550000,C195H156-
Na2Sn4 anion,1.550000,Na2Sn4-
Nb2O3,1.550000,Nb2O3
(KI)11 radical anion,1.550000,I11K11-
V14 anion,1.550000,V14-
CoC3 radical anion,1.550000,C3Co-
V15O2 radical anion,1.550000,O2V15-
(NaCl)2 radical anion,1.550000,Cl2Na2-
Ti9,1.550000,Ti9
Ru3Co,1.550000,CoRu3
O2C(CH2)6CO2 dianion,1.550000,C8H12O4-2
PhNMe anion,1.554000,C7H8N-
Hydroxymethyl-d3 radical,1.555000,CD3O
"Benzaldehyde, 2-nitro-",1.557000,C7H5NO3
"9,10-Anthracenedione, 2-(1,1-dimethylethyl)-",1.557000,C18H16O2
"9,10-Anthracenedione, 2-ethyl-",1.557000,C16H12O2
Ph3C anion,1.559000,C19H15-
(Me3Si)2CH anion,1.559000,C7H19Si2-
CrMoO7 dianion,1.560000,CrMoO7-2
V14O radical,1.560000,OV14
(o-terphenyl)60 radical anion,1.560000,C1080H840-
(o-terphenyl)70 radical anion,1.560000,C1260H980-
MnS3 radical anion,1.560000,MnS3-
(1-Me-anthracene)14 radical anion,1.560000,C210H168-
Bi3C5H4N anion,1.560000,C5H4Bi3N-
TiC3 anion,1.561000,C3Ti-
iridium,1.564000,Ir
mCl-phenide anion,1.565000,C6H4Cl-
"Acetophenone, 4'-nitro-",1.565000,C8H7NO3
"Benzonitrile, 3-nitro-",1.565000,C7H4N2O2
SnPb,1.569000,PbSn
MeO anion,1.569000,CH3O-
"Methanone, (4-nitrophenyl)phenyl-",1.570000,C13H9NO3
"Methane, trifluoroiodo-",1.570000,CF3I
C60Na23 radical anion,1.570000,C60Na23-
C60Na27 radical anion,1.570000,C60Na27-
Ni5 radical anion,1.570000,Ni5-
MeCH=CHO anion,1.570000,C3H5O-
(1-Me-anthracene)15 radical anion,1.570000,C225H180-
palladium monoxide,1.570000,OPd
Al3O radical,1.570000,Al3O
Re2,1.571000,Re2
Al13K radical anion,1.580000,Al13K-
(azulene)4 radical anion,1.580000,C40H32-
(H2O)37 radical anion,1.580000,H74O37-
RhO anion,1.580000,ORh-
(CO2)2..pyridine radical anion,1.580000,C7H5NO4-
Cr5 anion,1.580000,Cr5-
W5 radical anion,1.580000,W5-
Co4O radical anion,1.580000,Co4O-
PtCl6 dianion,1.580000,Cl6Pt-2
Ta3O radical,1.583000,OTa3
mMe-anilide anion,1.584000,C7H8N-
zirconium silicide,1.584000,SiZr
NdCl2..Cl anion,1.586000,Cl3Nd-
Magnesium chloride,1.589000,ClMg
TiO2,1.589000,O2Ti
C60Na14 radical anion,1.590000,C60Na14-
Cr8 anion,1.590000,Cr8-
Fe2(coronene) radical anion,1.590000,C24H12Fe2-
(1-Me-anthracene)16 radical anion,1.590000,C240H192-
CoNb6 anion,1.590000,CoNb6-
Phosphorus tribromide,1.591000,Br3P
"9,10-Anthracenedione",1.591000,C14H8O2
AgCl anion,1.593000,AgCl-
Dichloromethylene,1.593000,CCl2
Cyanomethyl radical,1.593000,C2H2N
3-Nitrobenzyl radical,1.594000,C7H6NO2
C3S anion,1.596000,C3S-
cyclopentanone enolate anion,1.598000,C5H7O-
KrO anion,1.600000,KrO-
V3C6 radical anion,1.600000,C6V3-
p-xylene..O2 radical anion,1.600000,C8H10O2-
(o-terphenyl)80 radical anion,1.600000,C1440H1120-
EuSi4 anion,1.600000,EuSi4-
(1-Me-anthracene)17 radical anion,1.600000,C255H204-
PbC6F5 anion,1.600000,C6F5Pb-
SmSi5 anion,1.600000,Si5Sm-
SmSi7 anion,1.600000,Si7Sm-
PrSi4 anion,1.600000,PrSi4-
CoNb7 anion,1.600000,CoNb7-
MoVO2 radical anion,1.600000,MoO2V-
Fe2BO2 anion,1.600000,BFe2O2-
Fe4BO2 anion,1.600000,BFe4O2-
pyrromethene 556 dianion,1.600000,C14H15BF2N2O6S-2
(KI)9 radical anion,1.600000,I9K9-
(KI)13 radical anion,1.600000,I13K13-
K(KI)13 radical anion,1.600000,I13K14-
K2(KI)12 radical anion,1.600000,I12K14-
THF..UO2(CF3COCHCOCF3)2 radical anion,1.600000,C14H10F12O7U-
H2O..O2C(CH2)5CO2 dianion,1.600000,C7H12O5-2
C60Na5 radical anion,1.600000,C60Na5-
C60Na16 radical anion,1.600000,C60Na16-
Ga2 anion,1.600000,Ga2-
B4 anion,1.600000,B4-
Fe2O radical,1.600000,Fe2O
"Benzene, 1-methyl-2,4-dinitro-",1.600000,C7H6N2O4
Bismuth trimer,1.600000,Bi3
Phosphorus difluoride,1.600000,F2P
Germanium dibromide,1.600000,Br2Ge
Co3 radical,1.600000,Co3
H3B-S(Me)CH2 anion,1.600000,C2H8BS-
H3B-N(Me)2CH2 anion,1.600000,C3H11BN-
H3B-P(Me)2CH2 anion,1.600000,C3H11BP-
silver cyanide,1.602000,CAgN
(Z)CD3CD=CDO anion,1.603000,C3D5O-
AgI anion,1.603000,AgI-
LaC6 radical anion,1.604000,C6La-
Anilino radical,1.607000,C6H6N
2-norbornanone enolate anion,1.609000,C7H9O-
"Benzonitrile, 2-nitro-",1.609000,C7H4N2O2
Si4C2 radical anion,1.610000,C2Si4-
Si7Na2 radical anion,1.610000,Na2Si7-
C70Na5 radical anion,1.610000,C70Na5-
C60Na19 radical anion,1.610000,C60Na19-
C60Na30 radical anion,1.610000,C60Na30-
C60Na32 radical anion,1.610000,C60Na32-
Disiladicarbide,1.610000,C2Si2
Nb12Al radical,1.610000,AlNb12
Ag8,1.610000,Ag8
(o-terphenyl)90 radical anion,1.610000,C1620H1260-
(o-terphenyl)100 radical anion,1.610000,C1800H1400-
BiC6F5 anion,1.610000,C6BiF5-
Ag3H anion,1.610000,Ag3H-
Germyl radical,1.611000,GeH3
Bismuth monoxide,1.617000,BiO
InP2 radical anion,1.617000,InP2-
CrC2 radical anion,1.617000,C2Cr-
CH2=CHCHCN anion,1.617000,C4H4N-
Nb16 radical anion,1.620000,Nb16-
Al3O2 radical anion,1.620000,Al3O2-
p-difluorobenzene..O4 radical anion,1.620000,C6H4F2O4-
(1-Me-anthracene)18 radical anion,1.620000,C270H216-
CoNb8 anion,1.620000,CoNb8-
Nb2O4 anion,1.620000,Nb2O4-
MeCN..UO2F4 dianion,1.620000,C2H3F4NO2U-2
Bi2C6H5 anion,1.620000,C6H5Bi2-
MgO4 radical anion,1.620000,MgO4-
Duroquinone,1.622000,C10H12O2
AgBr anion,1.623000,AgBr-
LuO anion,1.624000,LuO-
BiGa anion,1.630000,BiGa-
Rh5Co anion,1.630000,CoRh5-
Pb3,1.630000,Pb3
C60Na12 radical anion,1.630000,C60Na12-
C60Na31 radical anion,1.630000,C60Na31-
C60Na33 radical anion,1.630000,C60Na33-
MgO radical anion,1.630000,MgO-
Co6 radical anion,1.630000,Co6-
Silver tetramer,1.630000,Ag4
"3,3-dimethyl-cyclopropenide anion",1.630000,C5H7-
cycloctanone enolate anion,1.630000,C8H13O-
Phosphorus dibromide chloride,1.630000,Br2ClP
MeCH=C(Me)O anion,1.639000,C4H7O-
ZrO2 anion,1.640000,O2Zr-
(C6F6)7..C6F6 radical anion,1.640000,C48F48-
ScC3 radical anion,1.640000,C3Sc-
Pb7F anion,1.640000,FPb7-
W4 radical anion,1.640000,W4-
CrWO7 dianion,1.640000,CrO7W-2
EtCH=CHO anion,1.640000,C4H7O-
(1-Me-anthracene)19 radical anion,1.640000,C285H228-
Nitroethylene,1.648000,C2H3NO2
N≡CCHS,1.648000,C2HNS
(Ar)2..O radical anion,1.648000,Ar2O-
Al17Co anion,1.650000,Al17Co-
Al9Cs anion,1.650000,Al9Cs-
Al14Cs anion,1.650000,Al14Cs-
CoNb10 anion,1.650000,CoNb10-
(CS2)2 radical anion,1.650000,C2S4-
Pd6 anion,1.650000,Pd6-
Scandium dicarbide,1.650000,C2Sc
Tl4,1.650000,Tl4
"Benzene, 1,2-dinitro-",1.652000,C6H4N2O4
pF-anilide anion,1.653000,C6H5FN-
HOS anion,1.655000,HOS-
"Benzene, 1,3-dinitro-",1.657000,C6H4N2O4
9-Me-fluorenide anion,1.660000,C14H11-
Fe8 anion,1.660000,Fe8-
C60Na15 radical anion,1.660000,C60Na15-
(NaCl)6 radical anion,1.660000,Cl6Na6-
Mn2S2 radical anion,1.660000,Mn2S2-
Mn4S5 radical anion,1.660000,Mn4S5-
Al13Co anion,1.660000,Al13Co-
"2,6-diMe-4-NO2-nitrobenzene radical",1.660000,C8H8N2O4
Triphosphorus,1.665000,P3
GaP2 anion,1.666000,GaP2-
Methylcyclopentadienyl radical,1.670000,C6H7
"3,6-dichlorophthalic anhydride",1.670000,C8H2Cl2O3
C60Na28 radical anion,1.670000,C60Na28-
LaC8 radical,1.670000,C8La
Sulfur dimer,1.670000,S2
Ti10,1.670000,Ti10
MeOH..Ph2CO radical anion,1.670000,C14H14O2-
Nb2C4 anion,1.670000,C4Nb2-
PhNEt anion,1.671000,C8H10N-
"3,5-diCF3-C6H3CH2 anion",1.675000,C9H5F6-
DCNN anion,1.679000,CDN2-
In2P2 radical anion,1.680000,In2P2-
HCI radical,1.680000,CHI
Pb2Ag radical anion,1.680000,AgPb2-
Mn2S3 radical anion,1.680000,Mn2S3-
(1-Me-anthracene)20 radical anion,1.680000,C300H240-
MeOH..Ag anion,1.680000,CH4AgO-
Bi2C5H4N anion,1.680000,C5H4Bi2N-
Bi2C4H3O anion,1.680000,C4H3Bi2O-
C60Na4 radical anion,1.680000,C60Na4-
FeC3 radical anion,1.680000,C3Fe-
Co7 radical anion,1.680000,Co7-
Pb7,1.680000,Pb7
Cr10,1.680000,Cr10
HCNN anion,1.684000,CHN2-
Palladium dimer,1.685000,Pd2
NbC3,1.686000,C3Nb
"2,3,6-trimethyl-p-benzoquinone",1.687000,C9H10O2
C60Na6 radical anion,1.690000,C60Na6-
Ti11,1.690000,Ti11
Tetraphenylporphyrin,1.690000,C44H30N4
Al12Si anion,1.690000,Al12Si-
cyclononanone enolate anion,1.691000,C9H15O-
"Benzaldehyde, 4-nitro-",1.691000,C7H5NO3
Tellurium monoxide,1.697000,OTe
CD3CD2O anion,1.699000,C2D5O-
Trimethyltin,1.700000,C3H9Sn
(benzene)Pb2 anion,1.700000,C6H6Pb2-
-3,1.700000,Mo12O40P
V2C6 radical anion,1.700000,C6V2-
V2C7 radical anion,1.700000,C7V2-
V3C3 radical anion,1.700000,C3V3-
V4C4 radical anion,1.700000,C4V4-
V4C7 radical anion,1.700000,C7V4-
EuSi5 anion,1.700000,EuSi5-
EuSi7 anion,1.700000,EuSi7-
Al11Cs anion,1.700000,Al11Cs-
SmSi8 anion,1.700000,Si8Sm-
HoSi4 anion,1.700000,HoSi4-
MoVO3 radical anion,1.700000,MoO3V-
HHfO anion,1.700000,HHfO-
Nb3C8 radical anion,1.700000,C8Nb3-
V4C5 radical,1.700000,C5V4
pNO2-C6H4SO2NHCH(Me)CO2H,1.700000,C9H10N2O6S
Al6S anion,1.700000,Al6S-
(C6F6)6..C6F6 radical anion,1.700000,C42F42-
As5 anion,1.700000,As5-
Pd7 anion,1.700000,Pd7-
CoC2 radical anion,1.700000,C2Co-
S2O8 dianion,1.700000,O8S2-2
Fe4O anion,1.700000,Fe4O-
(benzene)3..Co anion,1.700000,C18H18Co-
Fe6O anion,1.700000,Fe6O-
chromium dichloride,1.700000,Cl2Cr
selenium tetrafluoride,1.700000,F4Se
In4,1.700000,In4
K2C60,1.700000,C60K2
Dibromosilylene,1.700000,Br2Si
Fe7S2 radical,1.700000,Fe7S2
Br2CH anion,1.706000,CHBr2-
"9,10-Anthracenedione, 1-chloro-",1.709000,C14H7ClO2
CD3CH2O anion,1.709000,C2H2D5O-
(H2O)6..SO4 dianion,1.710000,H12O10S-2
Al13Na radical anion,1.710000,Al13Na-
Co8 radical anion,1.710000,Co8-
Co5O radical anion,1.710000,Co5O-
Co6O radical anion,1.710000,Co6O-
Co5 radical,1.710000,Co5
CH3CD2O anion,1.712000,C2H3D5O-
(H2O)47 radical anion,1.712000,H94O47-
EtO anion,1.712000,C2H5O-
(Ar)3..O radical anion,1.717000,Ar3O-
"2,6-Dimethoxybenzoquinone",1.717000,C8H8O4
FCH=C radical,1.718000,C2HF
Pb7I anion,1.720000,IPb7-
V16 anion,1.720000,V16-
W7 radical anion,1.720000,W7-
(NaCl)4 radical anion,1.720000,Cl4Na4-
Fe4,1.720000,Fe4
pCl-C6H4N radical anion,1.720000,C6H4ClN-
(azulene)5 radical anion,1.720000,C50H40-
CH2=C(OiPr)O anion,1.720000,C5H9O2-
EtCH=C(nPr)O anion,1.722000,C7H13O-
FeS anion,1.725000,FeS-
"Benzonitrile, 4-nitro-",1.726000,C7H4N2O2
CH2=C(OEt)O anion,1.729000,C4H7O2-
Cobalt dicarbonyl nitrosyl,1.730000,C2CoNO3
HOHfO anion,1.730000,HHfO2-
C70Na4 radical anion,1.730000,C70Na4-
Cr7 anion,1.730000,Cr7-
W9 radical anion,1.730000,W9-
Cr11,1.730000,Cr11
Tl6,1.730000,Tl6
YC6 radical,1.730000,C6Y
oF-phenide anion,1.730000,C6H4F-
CF3-phenide anion,1.735000,C7H4F3-
Si4C radical anion,1.740000,CSi4-
(fluorobenzene)2..V anion,1.740000,C12H10F2V-
H2O..O2C(CH2)6CO2 dianion,1.740000,C8H14O5-2
W8 radical anion,1.740000,W8-
(H2O)8..O2CCO2 dianion,1.740000,C2H16O12-2
P2H3 anion,1.740000,H3P2-
tin diiodide,1.740000,I2Sn
Ti12,1.740000,Ti12
Ni(Ph4-porphyrin-mono-á-CHO) radical,1.740000,C45H28N4NiO
(H2O)5..Me2CO radical anion,1.740000,C3H16O6-
(azulene)6 radical anion,1.740000,C60H48-
PbIn2 anion,1.740000,In2Pb-
Pb6S6 anion,1.740000,Pb6S6-
Nb3C7 radical anion,1.740000,C7Nb3-
AlCo8,1.740000,AlCo8
Phenylmaleic anhydride,1.743000,C10H6O3
CH2=C(OnPr)O anion,1.746000,C5H9O2-
CH2=C(Me)O anion,1.747000,C3H5O-
CD3SS anion,1.748000,CD3S2-
TiC5 anion,1.748000,C5Ti-
EuSi8 anion,1.750000,EuSi8-
Si5Cs anion,1.750000,CsSi5-
C70Na10 radical anion,1.750000,C70Na10-
In6 anion,1.750000,In6-
(CO2)3..pyridine radical anion,1.750000,C8H5NO6-
CO2..(pyridine)2 radical anion,1.750000,C11H10N2O2-
"(H2O)4..1,3-O2C-C6H4-CO2 dianion",1.750000,C8H12O8-2
Fe9,1.750000,Fe9
Tl5,1.750000,Tl5
cyclopentadienylide radical,1.752000,C5H4
oCl-phenide anion,1.753000,C6H4Cl-
CH2=C(tBu)O anion,1.755000,C6H11O-
"Ruthenium, tris(2,4-pentanedionato)-",1.756000,C15H21O6Ru
Thymoquinone,1.756000,C10H12O2
Methyldithio radical,1.757000,CH3S2
Chromium monofluoride,1.760000,CrF
Al2Co8 anion,1.760000,Al2Co8-
MoNbO2 anion,1.760000,MoNbO2-
Si3O anion,1.760000,OSi3-
CH2=C(Et)O anion,1.760000,C4H7O-
"2,5-Cyclohexadiene-1,4-dione, 2,5-dimethyl-",1.761000,C8H8O2
CNN Radical,1.761000,CN2
"2,5-Cyclohexadiene-1,4-dione, 2,6-dimethyl-",1.765000,C8H8O2
Menadione,1.765000,C11H8O2
"Naphthalene, 1,5-dinitro-",1.765000,C10H6N2O4
1-Cyanoethyl radical,1.766000,C3H4N
CH2=C(OnBu)O anion,1.768000,C6H11O2-
In3P radical anion,1.770000,In3P-
C60Na9 radical anion,1.770000,C60Na9-
Co8O radical anion,1.770000,Co8O-
"Benzene, 1-methyl-2,3-dinitro-",1.770000,C7H6N2O4
"Benzene, 4-methyl-1,2-dinitro-",1.770000,C7H6N2O4
C6F6..Au radical anion,1.770000,C6AuF6-
MnS radical anion,1.770000,MnS-
Mn2S4 radical anion,1.770000,Mn2S4-
Al16Co anion,1.770000,Al16Co-
(azulene)7 radical anion,1.770000,C70H56-
AlCo6,1.770000,AlCo6
AuOH anion,1.771000,AuHO-
copper oxide,1.777000,CuO
(Ar)4..O radical anion,1.778000,Ar4O-
n-Propoxy radical,1.780000,C3H7O
(NH3)2..NH2 anion,1.780000,H8N3-
Mn5S5 radical anion,1.780000,Mn5S5-
ZnOH anion,1.780000,HOZn-
Dibromomethylene,1.780000,CBr2
C70Na2 radical anion,1.780000,C70Na2-
Al4O4 anion,1.780000,Al4O4-
Cr9,1.780000,Cr9
Si10Na2 radical,1.780000,Na2Si10
"Naphthalene, 1,3-dinitro-",1.782000,C10H6N2O4
n-Butoxy radical,1.784000,C4H9O
"3,5-Bis(trifluoromethyl)nitrobenzene",1.787000,C8H3F6NO2
Fe5S2 radical anion,1.790000,Fe5S2-
Co9 radical anion,1.790000,Co9-
Cr12,1.790000,Cr12
Al2Co10 anion,1.790000,Al2Co10-
oCl-C6H4N radical anion,1.790000,C6H4ClN-
CoNb9 anion,1.790000,CoNb9-
H3Sn anion,1.792000,H3Sn-
2-indanone enolate anion,1.793000,C9H7O-
Propadienylidene,1.796000,C3H2
Nb18 radical anion,1.797000,Nb18-
Co(CO)(NO) anion,1.800000,CCoNO2-
CH2=C(OMe)O anion,1.800000,C3H5O2-
Co(CO)3,1.800000,C3CoO3
Co(CO)2,1.800000,C2CoO2
Ge7 anion,1.800000,Ge7-
Al7S anion,1.800000,Al7S-
Al8S anion,1.800000,Al8S-
Fe8S2 radical anion,1.800000,Fe8S2-
benzocyclobutadienide anion,1.800000,C8H5-
Fe3O2 anion,1.800000,Fe3O2-
Co9O radical anion,1.800000,Co9O-
Co6O2 radical anion,1.800000,Co6O2-
Al5N radical anion,1.800000,Al5N-
(NH3)3..H anion,1.800000,H10N3-
V2C5 radical anion,1.800000,C5V2-
V2C9 radical anion,1.800000,C9V2-
Pb2-pyridinyl radical anion,1.800000,C5H4NPb2-
Al10Cs anion,1.800000,Al10Cs-
YbSi4 anion,1.800000,Si4Yb-
YbSi6 anion,1.800000,Si6Yb-
MoNbO3 anion,1.800000,MoNbO3-
chromium difluoride,1.800000,CrF2
Na(NaF)5,1.800000,F5Na6
Cr13,1.800000,Cr13
V3C5 radical,1.800000,C5V3
Fe(CO)3,1.800000,C3FeO3
cyclobutanone enolate anion,1.801000,C4H5O-
Nb17 radical anion,1.803000,Nb17-
CH2=C(OH)O anion,1.804000,C2H3O2-
2-tBu-p-benzoquinone radical,1.804000,C10H12O2
"3,5-Cyclohexadiene-1,2-dione, 3,5-bis(1,1-dimethylethyl)-",1.804000,C14H20O2
oF-anilide anion,1.810000,C6H5FN-
Fe5,1.810000,Fe5
Cu6,1.810000,Cu6
Al13Li radical anion,1.810000,Al13Li-
Si3O2 anion,1.810000,O2Si3-
Pentafluoro ethyl radical,1.810000,C2F5
(H2O)57 radical anion,1.811000,H114O57-
"1,4-Naphthalenedione",1.813000,C10H6O2
CD2=CDO anion,1.817000,C2D3O-
Ti13,1.820000,Ti13
Trifluoromethyl radical,1.820000,CF3
Cu5,1.820000,Cu5
Al9Co anion,1.820000,Al9Co-
mCl-C6H4N radical anion,1.820000,C6H4ClN-
tBuCH=CHO anion,1.821000,C6H11O-
"2,3-diCN-benzoquinonide",1.821000,C8HN2O2
Selenium(IV) oxide,1.823000,O2Se
CH2CHO,1.825000,C2H3O
Hydroxyl-d,1.826000,DO
Hydroxyl radical,1.828000,HO
(Ar)5..O radical anion,1.828000,Ar5O-
Al4S anion,1.830000,Al4S-
Mn3S4 radical anion,1.830000,Mn3S4-
Al15Co anion,1.830000,Al15Co-
(azulene)8 radical anion,1.830000,C80H64-
(NH3)3..NH2 anion,1.830000,H11N4-