Name, EA,formula
(H2O)3..Na anion,1.130000,H6NaO3-
Nb6Al radical,1.130000,AlNb6
(p-terphenyl)12 radical anion,1.130000,C216H168-
"Benzonitrile, 4-acetyl-",1.132000,C9H7NO
"4-Cyclopentene-1,3-dione",1.136000,C5H4O2
U(BH4)4 radical,1.136000,B4H16U
HCðCCH2CH2CH=C=CH anion,1.140000,C7H7-
Co15O2 radical anion,1.140000,Co15O2-
(m-terphenyl)15 radical anion,1.140000,C270H210-
Zn3O3 anion,1.140000,O3Zn3-
Nb3C6 radical anion,1.140000,C6Nb3-
Y5O2 radical,1.140000,O2Y5
"2,4-dimethylenecyclobutan-1-ide anion",1.140000,C6H7-
"2,4-dimethylene-cyclobutane-3-yl-1-ide anion",1.140000,C6H6-
"3,5-Bis(trifluoromethyl)benzonitrile",1.140000,C9H3F6N
rhodium,1.143000,Rh
"3',5'-Bis(trifluoromethyl)acetophenone",1.149000,C10H6F6O
"Benzene, bromopentafluoro-",1.149000,C6BrF5
K(KI)5 radical anion,1.150000,I5K6-
(p-terphenyl)13 radical anion,1.150000,C234H182-
(benzene)Fe2 anion,1.150000,C6H6Fe2-
(2-Me-anthracene)5 radical anion,1.150000,C75H60-
Si5C radical anion,1.150000,CSi5-
fluorobenzene..V anion,1.150000,C6H5FV-
V6O2 radical anion,1.150000,O2V6-
Co16O radical anion,1.150000,Co16O-
(H2O)19 radical anion,1.153000,H38O19-
"1H-Isoindole-1,3(2H)-dione, 2-phenyl-",1.153000,C14H9NO2
"1H-Pyrrole-2,5-dione",1.153000,C4H3NO2
CD3OO anion,1.154000,CD3O2-
MeNH2..H anion,1.157000,CH6N-
Fe(CO),1.157000,CFeO
nickel,1.157000,Ni
"Benzoic acid, 4-formyl-, methyl ester",1.158000,C9H8O3
H2P2O7 dianion,1.160000,H2O7P2-2
diindenochrysene radical,1.160000,C26H12
Ti5,1.160000,Ti5
Ti7,1.160000,Ti7
CH2=C(OLi)O anion,1.160000,C2H2LiO2-
RhCo2,1.160000,Co2Rh
MeOO anion,1.161000,CH3O2-
"Benzene, 1-bromo-2-nitro-",1.162000,C6H4BrNO2
"2,5-Furandione, 3,4-dimethyl-",1.162000,C6H6O3
"Benzene, 1-chloro-2-nitro-",1.162000,C6H4ClNO2
BeC6 dianion,1.165000,C6Be-2
Tb anion,1.165000,Tb-
"Potassium, compound with sodium(1:2)",1.167000,KNa2
(p-terphenyl)14 radical anion,1.170000,C252H196-
(p-terphenyl)15 radical anion,1.170000,C270H210-
(p-terphenyl)17 radical anion,1.170000,C306H238-
(p-terphenyl)21 radical anion,1.170000,C378H294-
(p-terphenyl)22 radical anion,1.170000,C396H308-
(p-terphenyl)23 radical anion,1.170000,C414H322-
(p-terphenyl)24 radical anion,1.170000,C432H336-
(p-terphenyl)26 radical anion,1.170000,C468H364-
(p-terphenyl)35 radical anion,1.170000,C630H490-
(p-terphenyl)40 radical anion,1.170000,C720H560-
(azulene)2 radical anion,1.170000,C20H16-
Au26,1.170000,Au26
(H2O)5..thymine radical anion,1.170000,C5H16N2O7-
(H2O)6..7-aza-indole radical anion,1.170000,C7H18N2O6-
Y6O2 radical anion,1.170000,O2Y6-
(H2O)6..O2CCO2 dianion,1.170000,C2H12O10-2
Y5O radical,1.170000,OY5
Ti3,1.170000,Ti3
potassium metaborate,1.171000,BKO2
3-Fluorobenzyl radical,1.173000,C7H6F
4-Chlorobenzyl radical,1.174000,C7H6Cl
o-pyridinide anion,1.175000,C5H4N-
H2O..acridine radical anion,1.180000,C13H11NO-
(o-terphenyl)14 radical anion,1.180000,C252H196-
Fe(COT) radical anion,1.180000,C8H8Fe-
(anthracene)5 radical anion,1.180000,C70H50-
(2-Me-anthracene)6 radical anion,1.180000,C90H72-
(1-Me-anthracene)5 radical anion,1.180000,C75H60-
CoNb11 anion,1.180000,CoNb11-
pI-C6H4CH2 anion,1.184000,C7H6I-
"Naphthalene, 2-nitro-",1.184000,C10H7NO2
EtOO anion,1.186000,C2H5O2-
4-Methylphthalic anhydride,1.188000,C9H6O3
(H2O)20 radical anion,1.189000,H40O20-
Y4O2 radical anion,1.190000,O2Y4-
coronene..Ti3 anion,1.190000,C24H12Ti3-
GdO radical anion,1.190000,GdO-
Co17O radical anion,1.190000,Co17O-
(m-terphenyl)16 radical anion,1.190000,C288H224-
(m-terphenyl)17 radical anion,1.190000,C306H238-
MeSiH2 anion,1.193000,CH5Si-
oI-C6H4CH2 anion,1.193000,C7H6I-
mI-C6H4CH2 anion,1.193000,C7H6I-
mCH2Cl-C6H4CH2 anion,1.194000,C8H8Cl-
Mononitrogen monosulfide,1.194000,NS
tBuOO anion,1.196000,C4H9O2-
OH..H anion,1.200000,H2O-
K(KI)3 radical anion,1.200000,I3K4-
vanadium dichloride,1.200000,Cl2V
K3C60,1.200000,C60K3
CrOCl radical,1.200000,ClCrO
VOF radical,1.200000,FOV
(H2O)7..adenine radical anion,1.200000,C5H19N5O7-
(benzene)3Fe3 anion,1.200000,C18H18Fe3-
Co(COT) radical anion,1.200000,C8H8Co-
(2-Me-anthracene)8 radical anion,1.200000,C120H96-
Al13Cs anion,1.200000,Al13Cs-
Si6Cs anion,1.200000,CsSi6-
(COT)Eu anion,1.200000,C8H8Eu-
(COT)2Eu2 anion,1.200000,C16H16Eu2-
PbIn anion,1.200000,InPb-
BiC6H5 anion,1.200000,C6H5Bi-
titanium oxide,1.200000,OTi
VC4 radical,1.200000,C4V
Rh2Co2,1.200000,Co2Rh2
2'-deoxyadenosine 5'-(dihydrogen phosphate),1.200000,C10H14N5O6P
(H2O)2..C6F6 radical anion,1.200000,C6H4F6O2-
Cu-Phthalocyanine-(SO3-)3(SO3H)[-3],1.200000,C32H13CuN8O12S4
(7-aza-indole)3 radical anion,1.200000,C21H18N6-
(7-aza-indole)4 radical anion,1.200000,C28H24N8-
HOCH2CH2OH..NO anion,1.200000,C2H6NO3-
(benzene)4..Co3 anion,1.200000,C24H24Co3-
Co20O radical anion,1.200000,Co20O-
Co18O2 radical anion,1.200000,Co18O2-
"2,6-diMe-4-CO2Me-nitrobenzene radical",1.201000,C10H11NO4
"1,1'-Biphenyl, 4-nitro-",1.201000,C12H9NO2
Difluoromethyl radical,1.206000,CHF2
PhCH,1.207000,C7H6
V6,1.210000,V6
V7,1.210000,V7
Y7O radical,1.210000,OY7
Chloromethylene,1.210000,CHCl
V6O radical,1.210000,OV6
Ti4,1.210000,Ti4
5-Nitro-m-xylene,1.210000,C8H9NO2
Nb14 radical anion,1.210000,Nb14-
(2-Me-anthracene)7 radical anion,1.210000,C105H84-
BiC5H4N anion,1.210000,C5H4BiN-
PtCO anion,1.212000,COPt-
V3O radical,1.218000,OV3
"Benzonitrile, 4-formyl-",1.219000,C8H5NO
"1,3-Isobenzofurandione, 4-methyl-",1.219000,C9H6O3
Fe(CO)2,1.220000,C2FeO2
Nb12 radical anion,1.220000,Nb12-
(m-terphenyl)18 radical anion,1.220000,C324H252-
(o-terphenyl)15 radical anion,1.220000,C270H210-
Co19O radical anion,1.220000,Co19O-
Co16O2 radical anion,1.220000,Co16O2-
Chromium monoxide,1.221000,CrO
(H2O)21 radical anion,1.223000,H42O21-
"Benzoic acid, 3-nitro-, methyl ester",1.227000,C8H7NO4
"Naphthalene, 1-nitro-",1.227000,C10H7NO2
pBr-C6H4CH2 anion,1.229000,C7H6Br-
vanadium oxide,1.229000,OV
Co20O2 radical anion,1.230000,Co20O2-
Y6O radical,1.230000,OY6
AgNH2 anion,1.230000,AgH2N-
(m-terphenyl)19 radical anion,1.230000,C342H266-
"3,5-Bis(trifluoromethyl)benzaldehyde",1.232000,C9H4F6O
germanium,1.233000,Ge
copper,1.236000,Cu
"Benzene, 1-fluoro-3-nitro-",1.236000,C6H4FNO2
"1,4-Benzenedicarboxaldehyde",1.236000,C8H6O2
CCCO,1.237000,C3O
"Phosphinyl radical, dimethoxy-",1.240000,C2H6O3P
coronene..V3 anion,1.240000,C24H12V3-
Nb8Al radical,1.240000,AlNb8
Vanadium tetramer,1.240000,V4
V5,1.240000,V5
(N2O)7..NO anion,1.240000,N15O8-
(m-terphenyl)20 radical anion,1.240000,C360H280-
(o-terphenyl)16 radical anion,1.240000,C288H224-
(anthracene)6 radical anion,1.240000,C84H60-
(anthracene)7 radical anion,1.240000,C98H70-
2-Cyanoethyl radical,1.240000,C3H4N
uranium tetrafluoride,1.244000,F4U
Phthalic anhydride,1.245000,C8H4O3
oOMe-phenide anion,1.248000,C7H7O-
Fumaronitrile,1.249000,C4H2N2
(NaF)4 radical,1.250000,F4Na4
Na(NaF)7,1.250000,F7Na8
Nb11 radical anion,1.250000,Nb11-
(m-terphenyl)21 radical anion,1.250000,C378H294-
Al6Cs anion,1.250000,Al6Cs-
Al10Cs2 anion,1.250000,Al10Cs2-
Al13Cs3 anion,1.250000,Al13Cs3-
Al14Cs3 anion,1.250000,Al14Cs3-
(NH3)3..Pb2 anion,1.250000,H9N3Pb2-
"sexi(2,2')thiophene radical anion",1.250000,C24H14S6-
BiC4H3O anion,1.250000,C4H3BiO-
(MeNO2)2..MeNO2 radical anion,1.252000,C3H9N3O6-
Pt(CO)3 anion,1.253000,C3O3Pt-
MeOCH2CHCN anion,1.253000,C4H6NO-
"1,4-diazinide anion",1.254000,C4H3N2-
(H2O)22 radical anion,1.255000,H44O22-
oCl-C6H4CH2 anion,1.257000,C7H6Cl-
naphthalen-6-yl-2-ide anion,1.258000,C10H6-
"Benzene, 1-chloro-4-nitro-",1.258000,C6H4ClNO2
4-Cyanobenzophenone,1.258000,C14H9NO
NH3..Na3 radical anion,1.260000,H3NNa3-
Co17O2 radical anion,1.260000,Co17O2-
Co19O2 radical anion,1.260000,Co19O2-
(H2O)5..uracil radical anion,1.260000,C4H14N2O7-
(m-terphenyl)22 radical anion,1.260000,C396H308-
(m-terphenyl)23 radical anion,1.260000,C414H322-
(o-terphenyl)17 radical anion,1.260000,C306H238-
Methylidyne,1.260000,CH
carbon,1.262000,C
Phosphino radical,1.263000,H2P
Benzyne,1.265000,C6H4
Nb13 radical anion,1.270000,Nb13-
PbAg radical anion,1.270000,AgPb-
(anthracene)8 radical anion,1.270000,C112H80-
V11O2 radical anion,1.270000,O2V11-
AsH2 anion,1.270000,AsH2-
heptatrienide anion,1.270000,C7H9-
V7O radical,1.270000,OV7
Indium dimer,1.270000,In2
Me2C=C(Me)O anion,1.271000,C5H9O-
9-Anthracenecarbonitrile,1.271000,C15H9N
Bismuth dimer,1.271000,Bi2
mCl-C6H4CH2 anion,1.272000,C7H6Cl-
Silylidyne,1.277000,HSi
(C6F6)2..C6F6 radical anion,1.280000,C18F18-
benzene..{fluorobenzene}..V anion,1.280000,C12H11FV-
Cr4 anion,1.280000,Cr4-
(coronene)2..Ti anion,1.280000,C48H24Ti-
"Benzene, 1-chloro-3-nitro-",1.280000,C6H4ClNO2
(2-Me-anthracene)10 radical anion,1.280000,C150H120-
(2-Me-anthracene)12 radical anion,1.280000,C180H144-
(2-Me-anthracene)14 radical anion,1.280000,C210H168-
NH3..Bi anion,1.280000,BiH3N-
Diantimony,1.282000,Sb2
3-Nitrobenzophenone,1.284000,C13H9NO3
(H2O)23 radical anion,1.285000,H46O23-
AsO anion,1.286000,AsO-
norbornadienide anion,1.286000,C7H7-
cyclooctatetraene..Fe(CO)3 anion,1.288000,C11H8FeO3-
Y2O2 radical anion,1.290000,O2Y2-
Y3O3 radical anion,1.290000,O3Y3-
molybdenum oxide,1.290000,MoO
(m-terphenyl)24 radical anion,1.290000,C432H336-
(2-Me-anthracene)11 radical anion,1.290000,C165H132-
AgOMe anion,1.290000,CH3AgO-
ZrO anion,1.290000,OZr-
"Benzene, 1,2-dichloro-3-nitro-",1.292000,C6H3Cl2NO2
"Benzene, 1-bromo-4-nitro-",1.292000,C6H4BrNO2
pentaMe-cyclopentadienide anion,1.293000,C10H15-
2-Me-maleic anhydride radical anion,1.297000,C5H4O3-
(KI)2 radical anion,1.300000,I2K2-
K(KI)7 radical anion,1.300000,I7K8-
K2(KI)11 radical anion,1.300000,I11K13-
In3P3 radical anion,1.300000,In3P3-
Disodium difluoride,1.300000,F2Na2
Germanium difluoride,1.300000,F2Ge
AsF radical,1.300000,AsF
AsCl radical,1.300000,AsCl
AsBr radical,1.300000,AsBr
antimony pentafluoride,1.300000,F5Sb
p-difluorobenzene..O2 radical anion,1.300000,C6H4F2O2-
(o-terphenyl)18 radical anion,1.300000,C324H252-
(benzene)2Fe3 anion,1.300000,C12H12Fe3-
(benzene)2Fe4 anion,1.300000,C12H12Fe4-
(benzene)3Fe5 anion,1.300000,C18H18Fe5-
(benzene)4Fe5 anion,1.300000,C24H24Fe5-
(2-Me-anthracene)13 radical anion,1.300000,C195H156-
Al8Cs anion,1.300000,Al8Cs-
CoNb4 anion,1.300000,CoNb4-
(NH3)2..Bi anion,1.300000,BiH6N2-
Pb2S2 anion,1.300000,Pb2S2-
VC6 radical,1.300000,C6V
Si4Na radical anion,1.300000,NaSi4-
LaC3 radical anion,1.300000,C3La-
Ru6C(CO)16 dianion,1.300000,C17O16Ru6-2
CF3CF2CH2OH..uracil radical anion,1.300000,C7H7F5N2O3-
Boron,1.300000,B2
NI,1.301000,IN
Dichlorine monoxide,1.301000,Cl2O
silver,1.304000,Ag
Phenazine,1.305000,C12H8N2
mBr-C6H4CH2 anion,1.307000,C7H6Br-
oBr-C6H4CH2 anion,1.308000,C7H6Br-
"2,6-diMe-4-COMe-nitrobenzene radical",1.309000,C10H11NO3
9-Anthracenecarboxaldehyde,1.310000,C15H10O
coronene..Ti anion,1.310000,C24H12Ti-
coronene..Ti4 anion,1.310000,C24H12Ti4-
(benzene)2..Co anion,1.310000,C12H12Co-
AgAu radical,1.310000,AgAu
Ti6,1.310000,Ti6
(m-terphenyl)25 radical anion,1.310000,C450H350-
(2-Me-anthracene)15 radical anion,1.310000,C225H180-
(2-Me-anthracene)16 radical anion,1.310000,C240H192-
Co2O radical anion,1.310000,Co2O-
(H2O)24 radical anion,1.314000,H48O24-
"Benzene, 1-bromo-3-nitro-",1.318000,C6H4BrNO2
(p-terphenyl)16 radical anion,1.320000,C288H224-
(m-terphenyl)26 radical anion,1.320000,C468H364-
(o-terphenyl)19 radical anion,1.320000,C342H266-
MnS2 radical anion,1.320000,MnS2-
(anthracene)11 radical anion,1.320000,C154H110-
(2-Me-anthracene)18 radical anion,1.320000,C270H216-
(2-Me-anthracene)19 radical anion,1.320000,C285H228-
(1-Me-anthracene)6 radical anion,1.320000,C90H72-
H2O..O2C(CH2)4CO2 dianion,1.320000,C6H10O5-2
C60Na29 radical anion,1.320000,C60Na29-
AlSi anion,1.320000,AlSi-
Nb4Al radical,1.320000,AlNb4
Y9O radical,1.320000,OY9
Copper tetramer,1.320000,Cu4
Carbon monoxide,1.326000,CO
"Ethanone, 1-(3-nitrophenyl)-",1.327000,C8H7NO3
SnBr2 radical anion,1.330000,Br2Sn-
Zn(SC(CN)=C(CN)S)2 dianion,1.330000,C8N4S4Zn-2
(p-terphenyl)18 radical anion,1.330000,C324H252-
(p-terphenyl)20 radical anion,1.330000,C360H280-
(m-terphenyl)27 radical anion,1.330000,C486H378-
(anthracene)10 radical anion,1.330000,C140H100-
V8 anion,1.330000,V8-
C70Na14 radical anion,1.330000,C70Na14-
C60Na8 radical anion,1.330000,C60Na8-
V8O radical,1.330000,OV8
PhSi(Me)H,1.331000,C7H9Si
"2-Nitro-α,α,α-trifluorotoluene",1.331000,C7H4F3NO2
Mo(CO)3 anion,1.337000,C3MoO3-
Si6C radical anion,1.340000,CSi6-
(H2O)25 radical anion,1.340000,H50O25-
Y8O2 radical anion,1.340000,O2Y8-
Y8O radical,1.340000,OY8
O2C(CH2)5CO2 dianion,1.340000,C7H10O4-2
(H2O)6..uracil radical anion,1.340000,C4H16N2O8-
(p-terphenyl)19 radical anion,1.340000,C342H266-
(m-terphenyl)28 radical anion,1.340000,C504H392-
(m-terphenyl)29 radical anion,1.340000,C522H406-
(anthracene)12 radical anion,1.340000,C168H120-
(2-Me-anthracene)17 radical anion,1.340000,C255H204-
(2-Me-anthracene)20 radical anion,1.340000,C300H240-
(azulene)3 radical anion,1.340000,C30H24-
α-Furil,1.344000,C10H6O4
ICN radical anion,1.345000,CIN-
Difluoroamino radical,1.349000,F2N
Cr(CO)3,1.349000,C3CrO3
(KI)7 radical anion,1.350000,I7K7-
(KI)10 radical anion,1.350000,I10K10-
K(KI)10 radical anion,1.350000,I10K11-
K2(KI)8 radical anion,1.350000,I8K10-
Lithium fluoride,1.350000,FLi
(o-terphenyl)20 radical anion,1.350000,C360H280-
(o-terphenyl)21 radical anion,1.350000,C378H294-
(anthracene)13 radical anion,1.350000,C182H130-
(anthracene)14 radical anion,1.350000,C196H140-
(anthracene)15 radical anion,1.350000,C210H150-
(anthracene)16 radical anion,1.350000,C224H160-
(anthracene)17 radical anion,1.350000,C238H170-
(anthracene)18 radical anion,1.350000,C252H180-
(anthracene)19 radical anion,1.350000,C266H190-
(anthracene)20 radical anion,1.350000,C280H200-
Ta3 anion,1.350000,Ta3-
Nb5 radical,1.350000,Nb5
Nb7 radical,1.350000,Nb7
Si5Na2 radical anion,1.350000,Na2Si5-
C70Na15 radical anion,1.350000,C70Na15-
V8O2 radical anion,1.350000,O2V8-
Pd3,1.350000,Pd3
Yttrium monoxide,1.350000,OY
ScO radical,1.350000,OSc
"Phosphorus, mol. (P4)",1.350000,P4
Pd4,1.350000,Pd4
MoC radical anion,1.358000,CMo-
(C6F6)4..C6F6 radical anion,1.360000,C30F30-
(7-aza-indole)6 radical anion,1.360000,C42H36N12-
Cr3 anion,1.360000,Cr3-
coronene..Ti5 anion,1.360000,C24H12Ti5-
(coronene)2..V2 anion,1.360000,C48H24V2-
(H2O)5..SO4 dianion,1.360000,H10O9S-2
(p-terphenyl)25 radical anion,1.360000,C450H350-
(m-terphenyl)30 radical anion,1.360000,C540H420-
(1-Me-anthracene)7 radical anion,1.360000,C105H84-
AgS4 anion,1.360000,AgS4-
Al13Rb radical anion,1.360000,Al13Rb-
N-Phenylmaleimide,1.362000,C10H7NO2
Diphenylmethyl radical,1.363000,C13H11
Dilead,1.366000,Pb2
(H2O)26 radical anion,1.366000,H52O26-
(m-terphenyl)35 radical anion,1.370000,C630H490-
(2-Me-anthracene)9 radical anion,1.370000,C135H108-
Silicon dicarbide,1.370000,C2Si
Ni(SALEN-H2) radical,1.370000,C16H12N2NiO2
manganese oxide,1.375000,MnO
mNO-C6H4CH2 anion,1.380000,C7H6NO-
Fe4S radical anion,1.380000,Fe4S-
Co3O radical anion,1.380000,Co3O-
NbC2,1.380000,C2Nb
C60Na18 radical anion,1.380000,C60Na18-
(7-aza-indole)5 radical anion,1.380000,C35H30N10-
Me2C=CHO anion,1.380000,C4H7O-
coronene..V anion,1.380000,C24H12V-
Nb7Al radical,1.380000,AlNb7
Me3Ge anion,1.383000,C3H9Ge-
mF-phenide anion,1.383000,C6H4F-
Silyl-d3 radical,1.386000,D3Si
"2,3-Pyridinedicarboxylic anhydride",1.388000,C7H3NO3
silicon,1.390000,Si
(H2O)27 radical anion,1.390000,H54O27-
C60Na7 radical anion,1.390000,C60Na7-
C60Na11 radical anion,1.390000,C60Na11-
NiC3 radical anion,1.390000,C3Ni-
pyridine..O2 radical anion,1.390000,C5H5NO2-
"(H2O)3..1,3-O2C-C6H4-CO2 dianion",1.390000,C8H10O7-2
Fe7,1.390000,Fe7
(o-terphenyl)22 radical anion,1.390000,C396H308-
Ta2B2 anion,1.390000,B2Ta2-
"2,6-diMe-4-CHO-nitrobenzene radical",1.391000,C9H9NO3
Pentacene,1.392000,C22H14
Nb3O radical,1.393000,Nb3O
Me2C=NO anion,1.396000,C3H6NO-
"Ethanone, 1-(2-nitrophenyl)-",1.396000,C8H7NO3
pOMe-anilide anion,1.398000,C7H8NO-
V2C10 radical anion,1.400000,C10V2-
V4C6 radical anion,1.400000,C6V4-
(p-terphenyl)27 radical anion,1.400000,C486H378-
(p-terphenyl)29 radical anion,1.400000,C522H406-
(m-terphenyl)40 radical anion,1.400000,C720H560-
(benzene)4Fe3 anion,1.400000,C24H24Fe3-
(benzene)4Fe4 anion,1.400000,C24H24Fe4-
(benzene)4Fe7 anion,1.400000,C24H24Fe7-
Pb-pyridinyl radical anion,1.400000,C5H4NPb-
(anthracene)9 radical anion,1.400000,C126H90-
AgS2 anion,1.400000,AgS2-
Al11Cs2 anion,1.400000,Al11Cs2-
Al12Cs2 anion,1.400000,Al12Cs2-
Si7Cs anion,1.400000,CsSi7-
SmSi3 anion,1.400000,Si3Sm-
CoNb12 anion,1.400000,CoNb12-
CoNb13 anion,1.400000,CoNb13-
N-acetyl-proline radical,1.400000,C7H11NO3
Rh6,1.400000,Rh6
"2,4(1H,3H)-Pyrimidinedithione",1.400000,C4H4N2S2
Rh5,1.400000,Rh5
adenosine phosphate,1.400000,C10H14N5O7P
VC5 radical,1.400000,C5V
(KI)8 radical anion,1.400000,I8K8-
K(KI)11 radical anion,1.400000,I11K12-
K2(KI)10 radical anion,1.400000,I10K12-
LaC2 radical anion,1.400000,C2La-
LaC4 radical anion,1.400000,C4La-
coronene..V4 anion,1.400000,C24H12V4-
VOCl radical,1.400000,ClOV
NbCl4 radical,1.400000,Cl4Nb
tantalum tetrachloride,1.400000,Cl4Ta
AlS3,1.400000,AlS3
Decafluorocyclohexene,1.400000,C6F10
Me2SiHSiMe2 anion,1.401000,C4H13Si2-
1-naphthalenide anion,1.403000,C10H7-
Silyl radical,1.406000,H3Si
Phosphorus oxychloride,1.409000,Cl3OP
V7O2 radical anion,1.410000,O2V7-
naphthalene..O2 radical anion,1.410000,C10H8O2-
V10O radical,1.410000,OV10
V9O radical,1.410000,OV9
Cu8,1.410000,Cu8
(p-terphenyl)28 radical anion,1.410000,C504H392-
(m-terphenyl)50 radical anion,1.410000,C900H700-
(o-terphenyl)23 radical anion,1.410000,C414H322-
(o-terphenyl)24 radical anion,1.410000,C432H336-
CoNb14 anion,1.410000,CoNb14-
Nb6 radical,1.410000,Nb6
(H2O)28 radical anion,1.413000,H56O28-
"Benzene, pentafluoroiodo-",1.414000,C6F5I
"Benzene, 1-nitro-3-(trifluoromethyl)-",1.414000,C7H4F3NO2
pCl-phenide anion,1.418000,C6H4Cl-
H2O..O2 radical anion,1.420000,H2O3-
VC2 radical anion,1.420000,C2V-
(p-terphenyl)30 radical anion,1.420000,C540H420-
MeCH=NO anion,1.422000,C2H4NO-
(H2O)2..NO anion,1.430000,H4NO3-
(o-terphenyl)25 radical anion,1.430000,C450H350-
Fe2S radical anion,1.430000,Fe2S-
(1-Me-anthracene)8 radical anion,1.430000,C120H96-
Nb3C9 radical anion,1.430000,C9Nb3-
(NH3)2..Na3 radical anion,1.430000,H6N2Na3-
(NH3)3..Na3 radical anion,1.430000,H9N3Na3-
V9O2 radical anion,1.430000,O2V9-
V12O2 radical anion,1.430000,O2V12-
V13O2 radical anion,1.430000,O2V13-
V14O2 radical anion,1.430000,O2V14-
"2,6-diMe-4-CN-nitrobenzene radical",1.430000,C9H8N2O2
quinolinide anion,1.431000,C9H6N-
2-naphthalenide anion,1.431000,C10H7-
"Anthracene, 9-nitro-",1.431000,C14H9NO2
NaBO2 radical,1.431000,BNaO2
"Benzaldehyde, 3-nitro-",1.431000,C7H5NO3
MeCH=C(Et)O anion,1.433000,C5H9O-
Phenyl silyl radical,1.435000,C6H7Si
Maleic anhydride,1.440000,C4H2O3
C60Na17 radical anion,1.440000,C60Na17-
Fe3O anion,1.440000,Fe3O-
W3 radical anion,1.440000,W3-
(NaCl)7 radical anion,1.440000,Cl7Na7-
Nb5Al radical,1.440000,AlNb5
Y3O2 radical,1.440000,O2Y3
Ni3,1.440000,Ni3
(H2O)7..uracil radical anion,1.440000,C4H18N2O9-
(m-terphenyl)60 radical anion,1.440000,C1080H840-
(m-terphenyl)80 radical anion,1.440000,C1440H1120-
(o-terphenyl)26 radical anion,1.440000,C468H364-
CoNb15 anion,1.440000,CoNb15-
Rh4Co anion,1.440000,CoRh4-
9-anthryl-CH2 anion,1.440000,C15H11-
cycloheptanone enolate anion,1.444000,C7H11O-
"Benzene, 1,2-dichloro-4-nitro-",1.444000,C6H3Cl2NO2
CoH2,1.450000,CoH2
(m-terphenyl)70 radical anion,1.450000,C1260H980-
(o-terphenyl)28 radical anion,1.450000,C504H392-
(o-terphenyl)29 radical anion,1.450000,C522H406-
EuSi3 anion,1.450000,EuSi3-
Fe3S radical anion,1.450000,Fe3S-
Al14Cs2 anion,1.450000,Al14Cs2-
CoNb5 anion,1.450000,CoNb5-
BiC4H4N anion,1.450000,C4H4BiN-
B2O3 anion,1.450000,B2O3-
K(KI)8 radical anion,1.450000,I8K9-
K(KI)12 radical anion,1.450000,I12K13-
V9 anion,1.450000,V9-
V13 anion,1.450000,V13-
(H2O)2..O2C(CH2)3CO2 dianion,1.450000,C5H10O6-2
C70Na8 radical anion,1.450000,C70Na8-
C70Na12 radical anion,1.450000,C70Na12-
C60Na10 radical anion,1.450000,C60Na10-
Pd5,1.450000,Pd5
cobalt oxide,1.450000,CoO
As3,1.450000,As3
"Benzene, pentafluoronitro-",1.453000,C6F5NO2
HCBr radical,1.454000,CHBr
(NH3)2..H anion,1.455000,H7N2-
(H2O)30 radical anion,1.456000,H60O30-
Selenium oxide,1.456000,OSe
Si6Na2 radical anion,1.460000,Na2Si6-