Name, EA,formula
V8O20 anion,4.450000,O20V8-
NCCðCCðC anion,4.450000,C5N-
Au59 anion,4.455000,Au59-
CF3CO2 anion,4.457000,C2F3O2-
Boron dioxide,4.460000,BO2
pentafluorobenzoate anion,4.467000,C7F5O2-
HO2C(CH2)7CO2 anion,4.467000,C9H15O4-
(NH3)8..I anion,4.480000,H24IN8-
U2F10 anion,4.500000,F10U2-
(H2O)20..O2C(CH2)6CO2 dianion,4.500000,C8H52O24-2
TeF5,4.500000,F5Te
"2-Propenenitrile, 2-chloro-",4.500000,C3H2ClN
H2O..(NC)2N anion,4.500000,C2H2N3O-
(CO2)12..I anion,4.506000,C12IO24-
HO2C(CH2)2CO2 anion,4.510000,C4H5O4-
(THF)9..I anion,4.510000,C36H72IO9-
Au4S anion,4.510000,Au4S-
NdCl3..Cl anion,4.519000,Cl4Nd-
CsI..I anion,4.520000,CsI2-
(THF)10..I anion,4.520000,C40H80IO10-
H2O..CN anion,4.540000,CH2NO-
(H2O)5..N3 anion,4.540000,H10N3O5-
nC3F7CO2 anion,4.540000,C4F7O2-
Pd(SC(CN)=C(CN)S)2 anion,4.550000,C8N4PdS4-
(H2O)2..MeCO2 anion,4.550000,C2H7O4-
(THF)11..I anion,4.550000,C44H88IO11-
(CO2)13..I anion,4.552000,C13IO26-
Ni(SC(CN)=C(CN)S)2 anion,4.560000,C8N4NiS4-
H2PO4 anion,4.570000,H2O4P-
(THF)12..I anion,4.580000,C48H96IO12-
(H2O)4..I anion,4.590000,H8IO4-
C6F13 anion,4.600000,C6F13-
C70F52 fullerene radical,4.600000,C70F52
C70F54 fullerene radical,4.600000,C70F54
CoBr3 anion,4.600000,Br3Co-
BrO3 anion,4.600000,BrO3-
(THF)13..I anion,4.600000,C52H104IO13-
HO2CCH2CO2 anion,4.601000,C3H3O4-
(CO2)6..Br anion,4.608000,C6BrO12-
(CrO3)4 radical anion,4.610000,Cr4O12-
Br3 anion,4.618000,Br3-
(THF)14..I anion,4.619000,C56H112IO14-
(THF)15..I anion,4.630000,C60H120IO15-
(THF)16..I anion,4.640000,C64H128IO16-
Fe(SCN)3 anion,4.640000,C3FeN3S3-
Cl3 anion,4.640000,Cl3-
AlS2 anion,4.660000,AlS2-
SiF4..F anion,4.660000,F5Si-
(THF)17..I anion,4.660000,C68H136IO17-
(THF)19..I anion,4.660000,C76H152IO19-
IrF4 radical,4.670000,F4Ir
(THF)18..I anion,4.670000,C72H144IO18-
(THF)20..I anion,4.670000,C80H160IO20-
(H2O)35..O2CCO2 dianion,4.670000,C2H70O39-2
(THF)21..I anion,4.690000,C84H168IO21-
(THF)22..I anion,4.694000,C88H176IO22-
(THF)23..I anion,4.694000,C92H184IO23-
Co(SC(CN)=C(CN)S)2 anion,4.700000,C8CoN4S4-
CoCl3 anion,4.700000,Cl3Co-
IO3 anion,4.700000,IO3-
(THF)24..I anion,4.700000,C96H192IO24-
(THF)25..I anion,4.700000,C100H200IO25-
(H2O)6..N3 anion,4.700000,H12N3O6-
FSO3 anion,4.710000,FO3S-
(THF)26..I anion,4.720000,C104H208IO26-
(THF)27..I anion,4.724000,C108H216IO27-
(THF)28..I anion,4.730000,C112H224IO28-
(THF)29..I anion,4.739000,C116H232IO29-
Fe(SC(CN)=C(CN)S)2 anion,4.740000,C8FeN4S4-
RuF4 radical anion,4.750000,F4Ru-
N-CH2CO2-pyridinium-2-CO2 anion,4.750000,C8H6NO4-
(THF)30..I anion,4.750000,C120H240IO30-
HSO4 anion,4.750000,HO4S-
(MeCN)4..I anion,4.759000,C8H12IN4-
(H2O)40..O2CCO2 dianion,4.760000,C2H80O44-2
(CO2)7..Br anion,4.766000,C7BrO14-
Ph2Ag anion,4.770000,C12H10Ag-
(H2O)5..I anion,4.770000,H10IO5-
(CrO3)5 radical anion,4.800000,Cr5O15-
MnO4 anion,4.800000,MnO4-
H2O..F anion,4.800000,FH2O-
"N-Me-pyridinium-2,4-diCO2 anion",4.830000,C8H6NO4-
NaI2 anion,4.840000,I2Na-
(H2O)7..N3 anion,4.840000,H14N3O7-
"N-Me-pyridinium-3,5-diCO2 anion",4.850000,C8H6NO4-
(MeCN)3..Br anion,4.854000,C6H9BrN3-
(MeCN)2..Cl anion,4.863000,C4H6ClN2-
BrCl2 anion,4.864000,BrCl2-
LiI2 anion,4.880000,I2Li-
(H2O)2..(NC)2N anion,4.880000,C2H4N3O2-
HCl..Cl anion,4.896000,Cl2H-
(H2O)3..Br anion,4.910000,BrH6O3-
C60F33,4.920000,C60F33
Al3O5 radical,4.920000,Al3O5
(CO2)8..Br anion,4.925000,C8BrO16-
NiBr3 anion,4.940000,Br3Ni-
B4(BO)3 anion,4.940000,B7O3-
PO3 anion,4.950000,O3P-
Cu(SC(CN)=C(CN)S)2 anion,4.960000,C8CuN4S4-
CrO4 radical,4.964000,CrO4
(H2O)2..Cl anion,4.970000,ClH4O2-
(H2O)8..N3 anion,4.980000,H16N3O8-
C60F35 anion,4.980000,C60F35-
C4B radical anion,4.990000,C4B-
(MeOH)3..MeCO2 anion,5.000000,C5H15O5-
(CF3)2C(OH)C(CF3)2O anion,5.000000,C6HF12O2-
PhSO3 anion,5.000000,C6H5O3S-
(CO2)9..Br anion,5.002000,C9BrO18-
"N-Me-pyridinium-2,5-diCO2 anion",5.020000,C8H6NO4-
MnBr3 anion,5.030000,Br3Mn-
Uranium hexafluoride,5.056000,F6U
MnCl3 anion,5.070000,Cl3Mn-
Cu(BO2)2 anion,5.070000,B2CuO4-
"N-Me-pyridinium-2,6-diCO2 anion",5.080000,C8H6NO4-
(CO2)10..Br anion,5.081000,C10BrO20-
SeF5,5.100000,F5Se
SO4 radical,5.100000,O4S
(CO2)11..Br anion,5.102000,C11BrO22-
(MeCN)6..I anion,5.109000,C12H18IN6-
(H2O)6..I anion,5.110000,H12IO6-
(H2O)9..N3 anion,5.120000,H18N3O9-
(H2O)3..(NC)2N anion,5.120000,C2H6N3O3-
N-CH2CO2-pyridinium-4-CO2 anion,5.120000,C8H6NO4-
N-CH2CO2-pyridinium-3-CO2 anion,5.140000,C8H6NO4-
rhenium hexafluoride,5.140000,F6Re
Ta2O7 anion,5.150000,O7Ta2-
RuF4..F anion,5.190000,F5Ru-
Platinum tetrafluoride,5.199000,F4Pt
NiCl3 anion,5.200000,Cl3Ni-
(H2O)2..CN anion,5.200000,CH4NO2-
(H2O)7..I anion,5.200000,H14IO7-
(H2O)4..Br anion,5.210000,BrH8O4-
(MeCN)5..I anion,5.219000,C10H15IN5-
(H2O)4..(NC)2N anion,5.220000,C2H8N3O4-
(MeCN)4..Br anion,5.224000,C8H12BrN4-
(H2O)8..I anion,5.230000,H16IO8-
Nb2O7 anion,5.250000,Nb2O7-
ClO4 anion,5.250000,ClO4-
(H2O)10..N3 anion,5.250000,H20N3O10-
CuF2..F anion,5.260000,CuF3-
(MeCN)7..I anion,5.269000,C14H21IN7-
Ta2O6 anion,5.280000,O6Ta2-
CF3SO3 anion,5.300000,CF3O3S-
(H2O)11..N3 anion,5.340000,H22N3O11-
Nb2O6 anion,5.350000,Nb2O6-
NaBr2 anion,5.360000,Br2Na-
(H2O)12..N3 anion,5.370000,H24N3O12-
(H2O)5..(NC)2N anion,5.380000,C2H10N3O5-
(MeCN)3..Cl anion,5.383000,C6H9ClN3-
(MeCN)8..I anion,5.399000,C16H24IN8-
(H2O)9..I anion,5.400000,H18IO9-
LiBr2 anion,5.420000,Br2Li-
(H2O)6..(NC)2N anion,5.420000,C2H12N3O6-
RhF4 anion,5.430000,F4Rh-
(H2O)13..N3 anion,5.450000,H26N3O13-
(H2O)10..I anion,5.460000,H20IO10-
(MeCN)5..Br anion,5.474000,C10H15BrN5-
(H2O)5..Br anion,5.480000,BrH10O5-
(H2O)11..I anion,5.490000,H22IO11-
(H2O)14..N3 anion,5.490000,H28N3O14-
(H2O)3..Cl anion,5.500000,ClH6O3-
FeBr4 anion,5.500000,Br4Fe-
(MeCN)9..I anion,5.509000,C18H27IN9-
(H2O)12..I anion,5.550000,H24IO12-
C60F43 anion,5.550000,C60F43-
Cr2O7 anion,5.570000,Cr2O7-
ReO4 anion,5.580000,O4Re-
(H2O)7..(NC)2N anion,5.580000,C2H14N3O7-
(H2O)3..CN anion,5.580000,CH6NO3-
(H2O)15..N3 anion,5.580000,H30N3O15-
UO2I3 anion,5.600000,I3O2U-
MnF3..F anion,5.600000,F4Mn-
(MeCN)10..I anion,5.619000,C20H30IN10-
(H2O)16..N3 anion,5.620000,H32N3O16-
C60F45 anion,5.620000,C60F45-
(H2O)13..I anion,5.630000,H26IO13-
(H2O)14..I anion,5.640000,H28IO14-
(H2O)15..I anion,5.690000,H30IO15-
Fe(SCN)4 anion,5.700000,C4FeN4S4-
(MeCN)11..I anion,5.709000,C22H33IN11-
(MeCN)6..Br anion,5.714000,C12H18BrN6-
(H2O)8..(NC)2N anion,5.720000,C2H16N3O8-
(H2O)16..I anion,5.740000,H32IO16-
(MeCN)20..I anion,5.749000,C40H60IN20-
(H2O)6..Br anion,5.750000,BrH12O6-
(MeCN)14..I anion,5.759000,C28H42IN14-
(MeCN)15..I anion,5.759000,C30H45IN15-
(MeCN)16..I anion,5.759000,C32H48IN16-
(MeCN)4..Cl anion,5.773000,C8H12ClN4-
(MeCN)25..I anion,5.779000,C50H75IN25-
(H2O)2..F anion,5.790000,FH4O2-
(MeCN)12..I anion,5.799000,C24H36IN12-
(MeCN)13..I anion,5.799000,C26H39IN13-
(H2O)9..(NC)2N anion,5.800000,C2H18N3O9-
(MeCN)7..Br anion,5.844000,C14H21BrN7-
(H2O)10..(NC)2N anion,5.850000,C2H20N3O10-
NaCl2 anion,5.860000,Cl2Na-
(MeCN)30..I anion,5.869000,C60H90IN30-
(H2O)4..CN anion,5.890000,CH8NO4-
(H2O)4..Cl anion,5.920000,ClH8O4-
LiCl2 anion,5.920000,Cl2Li-
osmium hexafluoride,5.930000,F6Os
(MeCN)35..I anion,5.949000,C70H105IN35-
(H2O)11..(NC)2N anion,5.950000,C2H22N3O11-
H(IO3)2 anion,5.950000,HI2O6-
(H2O)12..(NC)2N anion,5.980000,C2H24N3O12-
Sc(SCN)4 anion,5.980000,C4NSSc-
FeCl4 anion,6.000000,Cl4Fe-
MgBr3 anion,6.000000,Br3Mg-
SbF5..F anion,6.000000,F6Sb-
(MeCN)8..Br anion,6.004000,C16H24BrN8-
(H2O)7..Br anion,6.010000,BrH14O7-
(MeCN)5..Cl anion,6.023000,C10H15ClN5-
IO4 anion,6.050000,IO4-
AuB2O3 radical anion,6.050000,AuB2O3-
(H2O)5..CN anion,6.090000,CH10NO5-
CrF4..F anion,6.100000,CrF5-
U2F11 anion,6.100000,F11U2-
CaBr3 anion,6.100000,Br3Ca-
(H2O)8..Br anion,6.120000,BrH16O8-
(MeCN)9..Br anion,6.124000,C18H27BrN9-
(MeCN)45..I anion,6.129000,C90H135IN45-
ScBr4 anion,6.130000,Br4Sc-
(MeCN)40..I anion,6.149000,C80H120IN40-
(H2O)9..Br anion,6.190000,BrH18O9-
(H2O)5..Cl anion,6.210000,ClH10O5-
(H2O)10..Br anion,6.220000,BrH20O10-
(MeCN)50..I anion,6.239000,C100H150IN50-
UO2F3 anion,6.250000,F3O2U-
(MeCN)55..I anion,6.269000,C110H165IN55-
UO2Br3 anion,6.270000,Br3O2U-
(MeCN)6..Cl anion,6.273000,C12H18ClN6-
(MeCN)10..Br anion,6.274000,C20H30BrN10-
EuCl4 radical anion,6.288000,Cl4Eu-
(H2O)11..Br anion,6.290000,BrH22O11-
Mo2O7 anion,6.300000,Mo2O7-
Na3Cl4 anion,6.300000,Cl4Na3-
K(IO3)2 anion,6.300000,I2KO6-
Li(IO3)2 anion,6.320000,I2LiO6-
(MeCN)11..Br anion,6.324000,C22H33BrN11-
Na(IO3)2 anion,6.350000,I2NaO6-
(MeCN)12..Br anion,6.374000,C24H36BrN12-
(MeCN)13..Br anion,6.394000,C26H39BrN13-
CoF3..F anion,6.400000,CoF4-
(H2O)12..Br anion,6.400000,BrH24O12-
(MeCN)14..Br anion,6.424000,C28H42BrN14-
(MeCN)15..Br anion,6.424000,C30H45BrN15-
(MeCN)20..Br anion,6.424000,C40H60BrN20-
(MeCN)7..Cl anion,6.443000,C14H21ClN7-
(MeCN)17..Br anion,6.444000,C34H51BrN17-
Na2Cl3 anion,6.460000,Cl3Na2-
RuF6,6.470000,F6Ru
(H2O)13..Br anion,6.480000,BrH26O13-
PtF5 anion,6.500000,F5Pt-
iridium hexafluoride,6.500000,F6Ir
W2O7,6.500000,O7W2
WF6..F anion,6.505000,F7W-
(MeCN)25..Br anion,6.514000,C50H75BrN25-
(MeCN)30..Br anion,6.554000,C60H90BrN30-
(MeCN)8..Cl anion,6.563000,C16H24ClN8-
(H2O)6..Cl anion,6.580000,ClH12O6-
(H2O)3..F anion,6.590000,FH6O3-
MgCl3 anion,6.600000,Cl3Mg-
(H2O)15..Br anion,6.600000,BrH30O15-
(MeCN)35..Br anion,6.604000,C70H105BrN35-
CaCl3 anion,6.620000,CaCl3-
(H2O)14..Br anion,6.620000,BrH28O14-
UO2Cl3 anion,6.640000,Cl3O2U-
(MeCN)40..Br anion,6.644000,C80H120BrN40-
(H2O)16..Br anion,6.700000,BrH32O16-
(MeCN)9..Cl anion,6.753000,C18H27ClN9-
ScCl4 anion,6.840000,Cl4Sc-
(MeCN)10..Cl anion,6.843000,C20H30ClN10-
(H2O)7..Cl anion,6.880000,ClH14O7-
(MeCN)12..Cl anion,6.903000,C24H36ClN12-
(MeCN)11..Cl anion,6.923000,C22H33ClN11-
(MeCN)14..Cl anion,6.923000,C28H42ClN14-
(MeCN)15..Cl anion,6.923000,C30H45ClN15-
(MeCN)13..Cl anion,6.943000,C26H39ClN13-
(MeCN)18..Cl anion,6.963000,C36H54ClN18-
platinum hexafluoride,7.000000,F6Pt
Na4Cl5 anion,7.000000,Cl5Na4-
YCl4 anion,7.020000,Cl4Y-
LaCl3..Cl anion,7.030000,Cl4La-
(MeCN)23..Cl anion,7.083000,C46H69ClN23-
(MeCN)28..Cl anion,7.173000,C56H84ClN28-
(MeCN)33..Cl anion,7.233000,C66H99ClN33-
(H2O)4..F anion,7.350000,FH8O4-