Name, EA,formula
Co7O radical anion,1.830000,Co7O-
Co11O radical anion,1.830000,Co11O-
mSMe-anilide anion,1.831000,C7H8NS-
cyclodecanone enolate anion,1.834000,C10H17O-
CH2=C(iPr)O anion,1.835000,C5H9O-
vanadium dioxide,1.836000,O2V
Me2BCH2 anion,1.839000,C3H8B-
Ru(EtCOCHCOEt)3 radical,1.839000,C21H33O6Ru
C60Na2 radical anion,1.840000,C60Na2-
"benzene-1,3,5-tricarbonitrile",1.840000,C9H3N3
Ge2F2 radical,1.840000,F2Ge2
"1,3-diazinide anion",1.840000,C4H3N2-
Mn3S2 radical anion,1.840000,Mn3S2-
Pb2In anion,1.840000,InPb2-
NCCH=C radical,1.840000,C3HN
dihydropentalenide anion,1.842000,C8H7-
BrClC radical anion,1.845000,CBrCl-
indium phosphide,1.845000,InP
"1,2-diazinide anion",1.850000,C4H3N2-
Si9Na2 radical anion,1.850000,Na2Si9-
(CS2)3 radical anion,1.850000,C3S6-
Pd8 anion,1.850000,Pd8-
(benzene)4..Co anion,1.850000,C24H24Co-
Co4O2 radical anion,1.850000,Co4O2-
Co9O2 radical anion,1.850000,Co9O2-
Fe5O anion,1.850000,Fe5O-
Ag(NH2)2 anion,1.850000,AgH4N2-
p-xylene..O4 radical anion,1.850000,C8H10O4-
YbSi5 anion,1.850000,Si5Yb-
YbSi7 anion,1.850000,Si7Yb-
HoSi3 anion,1.850000,HoSi3-
Si7,1.850000,Si7
Pb6,1.850000,Pb6
Fe10,1.850000,Fe10
Antimony trimer,1.850000,Sb3
"p-Benzoquinone, 2-methyl-",1.852000,C7H6O2
Indenyl radical,1.852000,C9H7
furanide anion,1.853000,C4H3O-
"2,5-Cyclohexadiene-1,4-dione, 2,3-dimethoxy-5-methyl-",1.856000,C9H10O4
Methylthio-d3 radical,1.858000,CD3S
W(CO)3 anion,1.859000,C3O3W-
InP3 radical anion,1.860000,InP3-
Pb2In2 anion,1.860000,In2Pb2-
"2,3-dehydrobenzoquinone radical anion",1.860000,C6H2O2-
Pb5F anion,1.860000,FPb5-
Ga2P2 radical anion,1.860000,Ga2P2-
Co7O2 radical anion,1.860000,Co7O2-
p-Benzoquinone,1.860000,C6H4O2
"Fe-tetra-(2,6-Cl2-phenyl)porphyrin radical",1.860000,C44H20Cl8FeN4
Ni7 radical,1.860000,Ni7
CH2=CHCNN anion,1.864000,C3H3N2-
Ferric tris(acetylacetonate),1.865000,C15H21FeO6
"2,5-Cyclohexadiene-1,4-dione, 2,6-bis(1,1-dimethylethyl)-",1.865000,C14H20O2
nC7H15O anion,1.866000,C7H15O-
nC9H19O anion,1.866000,C9H19O-
CH3S,1.867000,CH3S
Fluorenyl radical,1.869000,C13H9
EtN radical,1.869000,C2H5N
Fe6S2 radical anion,1.870000,Fe6S2-
MnC3 radical anion,1.870000,C3Mn-
pyridine..{H2O}..O2 radical anion,1.870000,C5H7NO3-
(COS)2 radical anion,1.870000,C2O2S2-
Pt3,1.870000,Pt3
Iron tetraphenylporphyrin,1.870000,C44H28FeN4
Chlorodifluoromethyl radical,1.870000,CClF2
Ni6 radical,1.870000,Ni6
Mn6S6 radical anion,1.870000,Mn6S6-
Si2F4 radical anion,1.870000,F4Si2-
(azulene)9 radical anion,1.870000,C90H72-
HCCHO radical,1.870000,C2H2O
Zr2O4 radical anion,1.873000,O4Zr2-
1-Methyl ethoxy radical,1.874000,C3H7O
Cu20,1.875000,Cu20
iBuO anion,1.875000,C4H9O-
Nb19 radical anion,1.875000,Nb19-
Disulfur monoxide,1.877000,OS2
nC8H17O anion,1.879000,C8H17O-
In4P radical anion,1.880000,In4P-
Nb3C5 radical anion,1.880000,C5Nb3-
Al2O2 anion,1.880000,Al2O2-
Tl10 anion,1.880000,Tl10-
V17 anion,1.880000,V17-
AuPd radical anion,1.880000,AuPd-
Mo2O7 dianion,1.880000,Mo2O7-2
C6H5Ag3 anion,1.880000,C6H5Ag3-
Ga3P radical,1.880000,Ga3P
(Ar)6..O radical anion,1.881000,Ar6O-
H2O..CO3 radical anion,1.882000,CH2O4-
CH2=C(CH2F)O anion,1.887000,C3H4FO-
m-aza-anilide anion,1.888000,C5H5N2-
cPrCH2O anion,1.888000,C4H7O-
nC5H11O anion,1.888000,C5H11O-
Al5O5 anion,1.890000,Al5O5-
W13 radical,1.890000,W13
Pb3S3 anion,1.890000,Pb3S3-
"1,4-Benzenedicarbonitrile, 2,3,5,6-tetrafluoro-",1.891000,C8F4N2
nC6H13O anion,1.892000,C6H13O-
GaAs2 radical anion,1.894000,As2Ga-
sBuCH2O anion,1.895000,C5H11O-
Platinum dimer,1.898000,Pt2
O2..O2 radical anion,1.899000,O4-
Al2S2 anion,1.900000,Al2S2-
Si6Na radical anion,1.900000,NaSi6-
(H2O)2..O2C(CH2)4CO2 dianion,1.900000,C6H12O6-2
In5 anion,1.900000,In5-
benzocyclobutenone enolate anion,1.900000,C8H5O-
Cu5(CN)5 radical anion,1.900000,C5Cu5N5-
Co10O radical anion,1.900000,Co10O-
Co13O radical anion,1.900000,Co13O-
(EtNO2)3..EtNO2 anion,1.900000,C8H20N4O8-
Al7N radical anion,1.900000,Al7N-
V2C4 radical anion,1.900000,C4V2-
EuSi11 anion,1.900000,EuSi11-
Mn4S2 radical anion,1.900000,Mn4S2-
PrSi5 anion,1.900000,PrSi5-
Ga7N radical anion,1.900000,Ga7N-
(azulene)10 radical anion,1.900000,C100H80-
CuBO2 anion,1.900000,BCuO2-
Fe8BO2 anion,1.900000,BFe8O2-
I2CH anion,1.900000,CHI2-
Ta2B4 anion,1.900000,B4Ta2-
Bi3C4H4N anion,1.900000,C4H4Bi3N-
Diethyl disulfide,1.900000,C4H10S2
NaGa4,1.900000,Ga4Na
AlCo10,1.900000,AlCo10
Magnesium iodide,1.900000,IMg
V3C4 radical,1.900000,C4V3
Ti14,1.900000,Ti14
Ti15,1.900000,Ti15
Ti16,1.900000,Ti16
Ti17,1.900000,Ti17
o-Benzoquinone,1.900000,C6H4O2
Ti18,1.900000,Ti18
sulphur trioxide,1.900000,O3S
UO2.(CF3COCHCOCF3)2 radical,1.900000,C10H2F12O6U
MeCH=CHCH2O anion,1.901000,C4H7O-
CH2=C(cPr)O anion,1.902000,C5H7O-
(H2O)69 radical anion,1.903000,H138O69-
MeOCH2CH2O anion,1.903000,C3H7O2-
cyclododecanone enolate anion,1.904000,C12H21O-
"2,5-Furandione, 3,4-dichloro-",1.904000,C4Cl2O3
cC6H11-CH2O,1.905000,C7H13O
trans-4-Me-cC6H10O anion,1.908000,C7H13O-
sBuCH2CH2O anion,1.908000,C6H13O-
tBuO anion,1.909000,C4H9O-
"6,6-dimethylfulven-7-ide anion",1.910000,C8H9-
SO2..SO2 radical anion,1.910000,O4S2-
Cu10,1.910000,Cu10
MgO2 radical anion,1.910000,MgO2-
Fe4S2 radical anion,1.910000,Fe4S2-
V18 anion,1.910000,V18-
Cu14,1.910000,Cu14
Co4 radical,1.910000,Co4
iPrCH2CH2O anion,1.914000,C5H11O-
Propanoyl,1.915000,C3H5O
Nd anion,1.916000,Nd-
HSS anion,1.916000,HS2-
Al3,1.916000,Al3
Ru(iPrCOCHCOiPr)3 radical,1.917000,C27H45O6Ru
DSS anion,1.918000,DS2-
C70Na6 radical anion,1.920000,C70Na6-
MoWO7 dianion,1.920000,MoO7W-2
Ditellurium,1.920000,Te2
nPrSSnPr radical,1.920000,C6H14S2
Si4,1.920000,Si4
AgS anion,1.920000,AgS-
nPrCH(Me)O anion,1.921000,C5H11O-
SnCN anion,1.922000,CNSn-
Me2C=NO2 anion,1.924000,C3H6NO2-
(Ar)7..O radical anion,1.926000,Ar7O-
NiD2,1.926000,D2Ni
9-Ph-fluorenide anion,1.928000,C19H13-
Et2CHCH2O anion,1.930000,C6H13O-
nPrCH(Me)CH2O anion,1.930000,C6H13O-
Cyclopentadienyl radical,1.930000,C5H5
Au4Mg anion,1.930000,Au4Mg-
Au5Cu anion,1.930000,Au5Cu-
Al10Co anion,1.930000,Al10Co-
Fe9BO2 anion,1.930000,BFe9O2-
Pb8S8 anion,1.930000,Pb8S8-
Ta2B5 anion,1.930000,B5Ta2-
Al4C anion,1.930000,CAl4-
V19 anion,1.930000,V19-
Co12O radical anion,1.930000,Co12O-
NaIn4,1.930000,In4Na
iPrCH2CH2CH2O anion,1.931000,C6H13O-
AlP2 radical anion,1.933000,AlP2-
NiH2,1.934000,H2Ni
Nb20 radical anion,1.934000,Nb20-
Nb21 radical anion,1.934000,Nb21-
EtC(Me)2O anion,1.936000,C5H11O-
PhCH=NO anion,1.938000,C7H6NO-
(Me3Si)2SiH anion,1.938000,C6H19Si3-
nC10H21O anion,1.938000,C10H21O-
iPrCH(Me)CH2O anion,1.938000,C6H13O-
mCO2Me-anilide anion,1.940000,C8H8NO2-
Pb15 anion,1.940000,Pb15-
Al9S anion,1.940000,Al9S-
Si7C radical anion,1.940000,CSi7-
Si7Na radical anion,1.940000,NaSi7-
W10 radical anion,1.940000,W10-
Co5O2 radical anion,1.940000,Co5O2-
Co8O2 radical anion,1.940000,Co8O2-
Pb8,1.940000,Pb8
Tetragermanium,1.940000,Ge4
Selenium dimer,1.940000,Se2
Gold dimer,1.940000,Au2
CH2=C(CH2.)O,1.940000,C3H4O
o-aza-anilide anion,1.941000,C5H5N2-
nBuCH(Me)O anion,1.943000,C6H13O-
Et2CHO anion,1.943000,C5H11O-
PhCHCN anion,1.944000,C8H6N-
1-Me-cC5H8-O anion,1.947000,C6H11O-
iPrCH(Me)O anion,1.947000,C5H11O-
cC7H13-O,1.947000,C7H13O
mMe-C6H4CHCN anion,1.949000,C9H8N-
sBuO anion,1.949000,C4H9O-
GaAs anion,1.949000,AsGa-
Sn7 anion,1.950000,Sn7-
Si10Na3 radical anion,1.950000,Na3Si10-
Ga3 anion,1.950000,Ga3-
LaC5 radical anion,1.950000,C5La-
Ru3Co(CO)2 anion,1.950000,C2CoO2Ru3-
TbSi6 radical anion,1.950000,Si6Tb-
W11 radical anion,1.950000,W11-
Pd9,1.950000,Pd9
Pd11,1.950000,Pd11
GaP3 radical,1.950000,GaP3
Ti20,1.950000,Ti20
(MeOH)5..Ph2CO radical anion,1.950000,C18H30O6-
HfSn16 radical anion,1.950000,HfSn16-
(COT)2Yb anion,1.950000,C16H16Yb-
Pb5S5 anion,1.950000,Pb5S5-
(MeOH)2..Ag anion,1.950000,C2H8AgO2-
trans-2-Me-cC6H10O anion,1.951000,C7H13O-
cis-4-Me-cC6H10O anion,1.951000,C7H13O-
Cl-triMe-p-benzoquinone radical,1.951000,C9H9ClO2
tBuCH2O anion,1.953000,C5H11O-
"1,3-Isobenzofurandione, 4,5,6,7-tetrachloro-",1.956000,C8Cl4O3
CI radical,1.960000,CI
Pb4Ag radical anion,1.960000,AgPb4-
Bi2Ga2 anion,1.960000,Bi2Ga2-
Al14Co anion,1.960000,Al14Co-
Si2F2 radical anion,1.960000,F2Si2-
Bi3C6F5 anion,1.960000,C6Bi3F5-
W12 radical anion,1.960000,W12-
(H2O)9..O2CCO2 dianion,1.960000,C2H18O13-2
Cr15,1.960000,Cr15
Cr14,1.960000,Cr14
Ni9 radical,1.960000,Ni9
trans-2-Me-cC5H8-O anion,1.960000,C6H11O-
nPnCH(Me)O,1.960000,C7H15O
"tris(2,2,6,6-tetramethyl-3,5-heptanedionato)ruthenium(III)",1.960000,C33H57O6Ru
Sn2,1.962000,Sn2
Ru(nPrCOCHCOnPr)3 radical,1.964000,C27H45O6Ru
Ru(nBuCOCHCOnBu)3 radical,1.964000,C33H57O6Ru
(Ar)8..O radical anion,1.967000,Ar8O-
sBuCH(Me)O anion,1.969000,C6H13O-
iBuCH(Me)O anion,1.969000,C6H13O-
Pb14I anion,1.970000,IPb14-
Ge2F3 radical anion,1.970000,F3Ge2-
V20 anion,1.970000,V20-
Cr6 anion,1.970000,Cr6-
Fe-triPh-oC6H4NHCO(CH2)4-Im-porphyrin radical,1.970000,C52H39FeN7O
Ti19,1.970000,Ti19
Ni8 radical,1.970000,Ni8
Fe7BO2 anion,1.970000,BFe7O2-
Tellurium,1.971000,Te
ZnF radical anion,1.974000,FZn-
nPrC(Me)2O anion,1.975000,C6H13O-
CH3CH2S,1.975000,C2H5S
iPrC(Me)2O anion,1.977000,C6H13O-
nPrCH(Et)O anion,1.977000,C6H13O-
mCOMe-anilide,1.979000,C8H8NO
In8 anion,1.980000,In8-
MoSi8 anion,1.980000,MoSi8-
Fe5BO2 anion,1.980000,BFe5O2-
Fe10BO2 anion,1.980000,BFe10O2-
MgO3 radical anion,1.980000,MgO3-
Si2C5 radical anion,1.980000,C5Si2-
FeC2 radical anion,1.980000,C2Fe-
(NaCl)8 radical anion,1.980000,Cl8Na8-
(NaCl)13 radical anion,1.980000,Cl13Na13-
Al4P radical,1.980000,Al4P
Cu7,1.980000,Cu7
1-Me-cC6H10-O anion,1.982000,C7H13O-
tBuCH(Me)O anion,1.982000,C6H13O-
Et2C(Me)O anion,1.983000,C6H13O-
"3,5-Dinitrobenzotrifluoride",1.987000,C7H3F3N2O4
N-Me-5-imidazolide anion,1.987000,C4H5N2-
GaP radical anion,1.988000,GaP-
CO2..(pyridine)3 radical anion,1.990000,C16H15N3O2-
W14 radical,1.990000,W14
pOH-phenoxide anion,1.990000,C6H5O2-
PbIn4 anion,1.990000,In4Pb-
PbIn6 anion,1.990000,In6Pb-
Pb9S9 anion,1.990000,Pb9S9-
VGe6 anion,1.990000,Ge6V-
5-imidazolide anion,1.992000,C3H3N2-
nBuC(Me)2O anion,1.992000,C7H15O-
Al13H anion,1.995000,Al13H-
Tricarbon,1.995000,C3
oNH2-phenoxide anion,1.996000,C6H6NO-
tBuCH2CH2O anion,1.996000,C6H13O-
WO2 anion,1.998000,O2W-
2-Propynylidyne,1.999000,C3H
cis-2-Me-cC6H10O anion,1.999000,C7H13O-
ClOF radical,1.999000,ClFO
In4P2 radical anion,2.000000,In4P2-
Tl14 anion,2.000000,Tl14-
V21 anion,2.000000,V21-
"(H2O)2..1,4-O2C-C6H4-CO2 dianion",2.000000,C8H8O6-2
YO2,2.000000,O2Y
Fe11,2.000000,Fe11
Pd10,2.000000,Pd10
Pd12,2.000000,Pd12
trifluoronitrosomethane,2.000000,CF3NO
(H2O)6..Me2CO radical anion,2.000000,C3H18O7-
Nb2C6 anion,2.000000,C6Nb2-
EuSi10 anion,2.000000,EuSi10-
Al8Co anion,2.000000,Al8Co-
Al5B anion,2.000000,Al5B-
Si8Cs anion,2.000000,CsSi8-
Si6Ho anion,2.000000,HoSi6-
SmSi10 anion,2.000000,Si10Sm-
Ga4N radical anion,2.000000,Ga4N-
Ta2B3 anion,2.000000,B3Ta2-
mOMe-C6H4CHCN anion,2.001000,C9H8NO-
SiCl3 anion,2.001000,Cl3Si-
Cyanomethylene,2.003000,C2HN
"Benzene, 1,4-dinitro-",2.003000,C6H4N2O4
PhCH2CH2CH2O anion,2.005000,C9H11O-
iPrCH(Et)O anion,2.005000,C6H13O-
Nb22 radical anion,2.007000,Nb22-
(Ar)9..O radical anion,2.008000,Ar9O-
Fe19 anion,2.010000,Fe19-
Fe20 anion,2.010000,Fe20-
Fe16,2.010000,Fe16
Nb2C7 anion,2.010000,C7Nb2-
TiSn16 radical anion,2.010000,Sn16Ti-
ZrSn16 radical anion,2.010000,Sn16Zr-
Pb7S7 anion,2.010000,Pb7S7-
MoNbO4 anion,2.010000,MoNbO4-
TiGe16 radical,2.010000,Ge16Ti
CH2=SiH anion,2.010000,CH3Si-
Tl11 anion,2.010000,Tl11-
"(H2O)5..1,3-O2C-C6H4-CO2 dianion",2.010000,C8H14O9-2
(benzene)Pt2,2.010000,C6H6Pt2
tBuCH2CH(Me)O anion,2.016000,C7H15O-
"2-Cl-3,6-diMe-p-benzoquinone radical",2.016000,C8H7ClO2
Propylthio radical,2.018000,C3H7S
Fe8S3 radical anion,2.020000,Fe8S3-
Si8Na3 radical anion,2.020000,Na3Si8-
Si9Na3 radical anion,2.020000,Na3Si9-
C60Na3 radical anion,2.020000,C60Na3-
NaCAl4 anion,2.020000,CAl4Na-
Co10 radical anion,2.020000,Co10-
Zn3O4 anion,2.020000,O4Zn3-
selenium,2.021000,Se
Et3CO anion,2.027000,C7H15O-
PtN radical,2.027000,NPt
(Me3Si)3Si anion,2.029000,C9H27Si4-
Pb3(benzene) anion,2.030000,C6H6Pb3-
TiSi16 radical anion,2.030000,Si16Ti-
(H2O)2..UO2F4 dianion,2.030000,F4H4O4U-2
HfGe16 radical,2.030000,Ge16Hf
MeSO2CH2 anion,2.031000,C2H5O2S-
Germanium dimer,2.035000,Ge2
Dititanium tetraoxide,2.035000,O4Ti2
(iPr)2CHO anion,2.036000,C7H15O-
Cobalt tris(acetylacetonate),2.038000,C15H21CoO6
(Ar)10..O radical anion,2.039000,Ar10O-
nBuS anion,2.040000,C4H9S-
Fe23 anion,2.040000,Fe23-
NaAl4 anion,2.040000,Al4Na-
(MeOH)2..Ph2CO radical anion,2.040000,C15H18O3-
TiSi8 anion,2.040000,Si8Ti-
Sn4 anion,2.040000,Sn4-
Si3C3 radical anion,2.040000,C3Si3-
Fe4S4 radical,2.040000,Fe4S4
Ti21,2.040000,Ti21
Ti22,2.040000,Ti22
Ti23,2.040000,Ti23
YC5 radical,2.040000,C5Y
"2,5-Cyclohexadiene-1,4-dione, 2-phenyl-",2.042000,C12H8O2
aluminium phosphide,2.043000,AlP
pMe-C6H4CH2O anion,2.044000,C8H9O-
p-difluorophenide anion,2.049000,C6H3F2-
(CS2)4 radical anion,2.050000,C4S8-
Tl12 anion,2.050000,Tl12-
V22 anion,2.050000,V22-
V23 anion,2.050000,V23-
(NaCl)9 radical anion,2.050000,Cl9Na9-
C4O radical,2.050000,C4O
Fe4O2,2.050000,Fe4O2
thiophenide anion,2.050000,C4H3S-
(Me2CO)5 radical anion,2.050000,C15H30O5-
Al11Co anion,2.050000,Al11Co-
Si2F3 radical anion,2.050000,F3Si2-
Al13B anion,2.050000,Al13B-
Al12B2 anion,2.050000,Al12B2-
Al8C anion,2.050000,CAl8-
Bi4C6F5 anion,2.050000,C6Bi4F5-
YbSi8 anion,2.050000,Si8Yb-
HoSi5 anion,2.050000,HoSi5-
Au6,2.051000,Au6
Al3P radical,2.051000,Al3P
"1,3-Isobenzofurandione, 4-nitro-",2.051000,C8H3NO5
iPrS anion,2.053000,C3H7S-
N-Me-5-pyrazolide anion,2.054000,C4H5N2-
FCH2CH2O anion,2.057000,C2H4FO-
(Ar)11..O radical anion,2.058000,Ar11O-
Trifluorovinyl radical,2.059000,C2F3
Carbon tetrabromide,2.060000,CBr4
Fe17 anion,2.060000,Fe17-
(TiO2)5 radical anion,2.060000,O10Ti5-
(TiO2)6 radical anion,2.060000,O12Ti6-
(TiO2)7 radical anion,2.060000,O14Ti7-
(TiO2)8 radical anion,2.060000,O16Ti8-
(TiO2)9 radical anion,2.060000,O18Ti9-
Pb3-pyridinyl radical anion,2.060000,C5H4NPb3-
(COT)2Er anion,2.060000,C16H16Er-
(TiO2)10 radical,2.060000,O20Ti10
Ge6 anion,2.060000,Ge6-
Fe7S3 radical anion,2.060000,Fe7S3-
Sn2CH2CN anion,2.060000,C2H2NSn2-
AlP3 radical anion,2.060000,AlP3-
Ni11 radical anion,2.060000,Ni11-
manganese dioxide,2.060000,MnO2
Ni10 radical,2.060000,Ni10
CH2=C(Ph)O anion,2.064000,C8H7O-
iBuS anion,2.066000,C4H9S-
PhCH2O anion,2.066000,C7H7O-
AuCN anion,2.066000,CAuN-
In3P2 radical anion,2.070000,In3P2-
In4P4 radical anion,2.070000,In4P4-
H2O..COS radical anion,2.070000,CH2O2S-
Fe-tetra(2-(NHCOtBu)phenyl)porphyrin radical,2.070000,C64H64FeN8O4
In8Si radical anion,2.070000,In8Si-
Mn5S4 radical anion,2.070000,Mn5S4-
Fe3BO2 anion,2.070000,BFe3O2-
Nb23 radical anion,2.072000,Nb23-
tBuCH(Et)O anion,2.073000,C7H15O-
C60Eu4 anion,2.074000,C60Eu4-
sulfur,2.077000,S
CH2=CHOCH2CH2O anion,2.079000,C4H7O2-
pOMe-C6H4CH2O anion,2.079000,C8H9O2-
(H2O)7..SO4 dianion,2.080000,H14O11S-2
Pb2In4 anion,2.080000,In4Pb2-
FeBO2 anion,2.080000,BFeO2-
Pb10S10 anion,2.080000,Pb10S10-
ZrGe16 radical,2.080000,Ge16Zr
Co11 radical anion,2.080000,Co11-
TbSi7 radical anion,2.080000,Si7Tb-
Ag6,2.080000,Ag6
NeS anion,2.083000,NeS-
zinc oxide,2.087000,OZn
cC6H11-CH2S anion,2.088000,C7H13S-
nC5H11S anion,2.090000,C5H11S-
naphthalene..{H2O}..O2 radical anion,2.090000,C10H10O3-
Ni12 radical anion,2.090000,Ni12-
Ga4P radical,2.090000,Ga4P
(Ar)12..O radical anion,2.091000,Ar12O-
CH2=CHCH(nPr)O anion,2.092000,C6H11O-
tBuS anion,2.092000,C4H9S-
Sulfur trimer,2.093000,S3
(Ar)13..O radical anion,2.098000,Ar13O-
B3N anion,2.098000,B3N-
Nb24 radical anion,2.098000,Nb24-
Ag13 anion,2.100000,Ag13-
In5P5 anion,2.100000,In5P5-
In7 anion,2.100000,In7-
Tl18 anion,2.100000,Tl18-
(NaCl)11 radical anion,2.100000,Cl11Na11-
Ga2As2 anion,2.100000,As2Ga2-
W2O7 dianion,2.100000,O7W2-2
CF2=C(CF3)O anion,2.100000,C3F5O-
vanadium trifluoride,2.100000,F3V
As3Ga3,2.100000,As3Ga3
(NaF)6 radical,2.100000,F6Na6
Ti24,2.100000,Ti24
Ti25,2.100000,Ti25
CrOF2 radical,2.100000,CrF2O
Cr17,2.100000,Cr17
"Silica, vitreous",2.100000,O2Si
"Cl..Fe-tetra-(2,6-Cl2-phenyl)porphyrin radical",2.100000,C44H20Cl9FeN4
(EtNO2)4..EtNO2 anion,2.100000,C10H25N5O10-
-3,2.100000,O40PW12
(AgF)4 anion,2.100000,Ag4F4-
HfPb16 radical anion,2.100000,HfPb16-
(COT)2Eu anion,2.100000,C16H16Eu-
Al12Cs anion,2.100000,Al12Cs-
(COT)3Eu2 anion,2.100000,C24H24Eu2-
(COT)4Eu3 anion,2.100000,C32H32Eu3-
(COT)5Eu4 anion,2.100000,C40H40Eu4-
(COT)6Eu5 anion,2.100000,C48H48Eu5-
(COT)7Eu6 anion,2.100000,C56H56Eu6-
(COT)8Eu7 anion,2.100000,C64H64Eu7-
(COT)2Ba anion,2.100000,C16H16Ba-
(COT)3Ba2 anion,2.100000,C24H24Ba2-
(COT)4Ba3 anion,2.100000,C32H32Ba3-
(COT)5Ba4 anion,2.100000,C40H40Ba4-
(COT)6Ba5 anion,2.100000,C48H48Ba5-
(COT)7Ba6 anion,2.100000,C56H56Ba6-
(COT)8Ba7 anion,2.100000,C64H60Ba7-
Si6Lu anion,2.100000,LuSi6-
SmSi9 anion,2.100000,Si9Sm-
PrSi6 anion,2.100000,PrSi6-
Au5H anion,2.100000,Au5H-
Ga5N radical anion,2.100000,Ga5N-
LuGe7 anion,2.100000,Ge7Lu-
PtAl anion,2.100000,AlPt-
Al8,2.100000,Al8
Rh7,2.100000,Rh7
Rh8,2.100000,Rh8
NaSn4,2.100000,NaSn4
Tellurium monohydride,2.102000,HTe
Ozone,2.103000,O3
PhCH=CHO anion,2.103000,C8H7O-
C60Eu3 anion,2.104000,C60Eu3-
5-pyrazolide anion,2.104000,C3H3N2-
HfO2 anion,2.104000,HfO2-
(Ar)14..O radical anion,2.105000,Ar14O-
Fe21 anion,2.110000,Fe21-
Au5Zn anion,2.110000,Au5Zn-
Bi2Ga anion,2.110000,Bi2Ga-
Pb16 anion,2.110000,Pb16-
Ti26 anion,2.110000,Ti26-
2-Cl-5-Me-p-benzoquinone radical,2.112000,C7H5ClO2
ArS anion,2.113000,ArS-
GeAl4 anion,2.114000,Al4Ge-
tBuCH(iPr)O anion,2.118000,C8H17O-
HONNO anion,2.120000,HN2O2-
Ag14 anion,2.120000,Ag14-
Pb13I anion,2.120000,IPb13-
MnC2 radical anion,2.120000,C2Mn-
Ti27 anion,2.120000,Ti27-
Fe12,2.120000,Fe12
Pentasilver,2.120000,Ag5
Bi2C6F5 anion,2.120000,C6Bi2F5-
NaSn6 anion,2.120000,NaSn6-
(NH3)4..NH2 anion,2.120000,H14N5-
SiAl4 anion,2.121000,Al4Si-
(Ar)15..O radical anion,2.122000,Ar15O-
uranium trioxide,2.125000,O3U
platinum,2.125000,Pt
HNiCO anion,2.126000,CHNiO-
mSCF3-anilide anion,2.126000,C7H5F3NS-
tBuCH2S anion,2.127000,C5H11S-
(Ar)16..O radical anion,2.127000,Ar16O-
MeCH=NO2 anion,2.127000,C2H4NO2-
"1,3-Isobenzofurandione, 5-nitro-",2.129000,C8H3NO5
Fe24 anion,2.130000,Fe24-
Fe5S3 radical anion,2.130000,Fe5S3-
C70Na9 radical anion,2.130000,C70Na9-
Tl20 anion,2.130000,Tl20-
Ti28 anion,2.130000,Ti28-
Nb2C5 anion,2.130000,C5Nb2-
LuGe6 anion,2.130000,Ge6Lu-
Ag10,2.130000,Ag10
Ge2F radical,2.130000,FGe2
Cr19,2.130000,Cr19
Cr16,2.130000,Cr16
Cr18,2.130000,Cr18
(Ar)17..O radical anion,2.133000,Ar17O-
Difluoroboryl radical,2.134000,BF2
KrS anion,2.134000,KrS-
Fe18 anion,2.140000,Fe18-
(NH3)4..H anion,2.140000,H13N4-
Fe6BO2 anion,2.140000,BFe6O2-
Pb8I anion,2.140000,IPb8-
V24 anion,2.140000,V24-
Mo2O4 radical anion,2.140000,Mo2O2-
(Ar)18..O radical anion,2.143000,Ar18O-
o-difluorophenide anion,2.143000,C6H3F2-
pyrrolide anion,2.145000,C4H4N-
Chlorine dioxide anion,2.145000,ClO2-
2-Cl-5-tBu-p-benzoquinone radical,2.147000,C10H11ClO2
PhCH(Me)O anion,2.148000,C8H9O-
(Ar)19..O radical anion,2.149000,Ar19O-
Fe22 anion,2.150000,Fe22-
SiC4 radical anion,2.150000,C4Si-
Fe7S4 radical anion,2.150000,Fe7S4-
(CS2)5 radical anion,2.150000,C5S10-
Tl19 anion,2.150000,Tl19-
Ti29 anion,2.150000,Ti29-
V25 anion,2.150000,V25-
(COS)3 radical anion,2.150000,C3O3S3-
Al2P2 radical,2.150000,Al2P2
"5,10,15,20-Tetraphenyl-21H,23H-porphine iron monochloride",2.150000,C44H28ClFeN4
Fe2S2 radical,2.150000,Fe2S2
Fe-tetra(C6F5)porphyrin radical,2.150000,C44H8F20FeN4
LiAl4 anion,2.150000,Al4Li-
Al12Co anion,2.150000,Al12Co-
Al7B2 anion,2.150000,Al7B2-
PbIn5 anion,2.150000,In5Pb-
(MeCN)2..UO2F4 dianion,2.150000,C4H6F4N2O2U-2
Al2MoO4 anion,2.150000,Al2MoO4-
tetrahydropyran-2-O anion,2.151000,C5H9O2-
(Ar)20..O radical anion,2.155000,Ar20O-
(Ar)21..O radical anion,2.159000,Ar21O-
Trichloromethyl radical,2.160000,CCl3
"Benzonitrile, 3,5-dinitro-",2.160000,C7H3N3O4
In10Ge radical anion,2.160000,GeIn10-
ScGe7 anion,2.160000,Ge7Sc-
Al2MoO2 anion,2.160000,Al2MoO2-
Co12 radical anion,2.160000,Co12-
Ni13 radical anion,2.160000,Ni13-
Ga4P2 radical,2.160000,Ga4P2
(Ar)22..O radical anion,2.165000,Ar22O-
Ph2N anion,2.168000,C12H10N-
p-t-amyl-nitrobenzene radical,2.168000,C11H15NO2
(tBu)2CHO anion,2.170000,C9H19O-